<VTKFile type="UnstructuredGrid" version="0.1" byte_order="BigEndian">
	<UnstructuredGrid>
		<Piece NumberOfPoints="15356" NumberOfCells="30052">
			<PointData Scalars="scalars">
				<DataArray type="Float32" Name="Density" Format="ascii">
				   1.399999988622
				   5.178757789685
				   2.803878720294
				   1.684676171323
				   2.093514639414
				   4.196595336229
				   1.399999996542
				   1.400000000000
				   1.400000000000
				   1.400000000000
				   1.400000000000
				   1.400000000000
				   1.400000000000
				   1.400000000000
				   1.400000000000
				   1.400000000000
				   1.400000000000
				   1.400000000000
				   1.400000000000
				   1.400000000000
				   1.400000000000
				   1.400000000000
				   1.400000000000
				   1.399999991803
				   1.399999991177
				   1.399999988045
				   1.399999986355
				   1.399999986995
				   1.399999987028
				   1.399999988495
				   1.399999989204
				   1.399999989315
				   1.399999990681
				   1.399999992751
				   1.399999992801
				   1.399999913362
				   1.400000662569
				   1.399997367181
				   1.400008060833
				   1.399982416766
				   1.400018006029
				   1.400043089389
				   1.399496889618
				   1.403227338447
				   1.384357053971
				   1.457591794003
				   1.201220189946
				   2.182978915512
				   4.315198752226
				   4.421576355110
				   4.495892520669
				   4.553685048540
				   4.581667336047
				   4.624445110103
				   4.645086575548
				   4.687896550640
				   4.705640283040
				   4.724833222031
				   4.730425076314
				   4.747326121709
				   4.770945806180
				   4.799369838366
				   4.831443222590
				   4.870316574461
				   4.913403441271
				   4.962785950646
				   5.005589282559
				   5.047599712180
				   5.076673409485
				   5.105810667134
				   5.134849345644
				   5.166585865274
				   5.194093778529
				   5.205329703446
				   5.228125714131
				   5.248515891163
				   5.250270014780
				   5.269747729192
				   5.275816366543
				   5.247301353813
				   5.248887759442
				   5.222227310640
				   5.225309438538
				   5.223319291014
				   5.222907830360
				   5.223181759232
				   5.180554011229
				   5.181611579749
				   5.192038177311
				   5.191754978746
				   5.210927567699
				   5.209506188374
				   5.192467375728
				   5.179812850852
				   5.155805703695
				   5.133531830212
				   5.113070422162
				   5.065619221121
				   5.020900813342
				   4.957243630688
				   4.921354894047
				   4.766490692891
				   3.475195885968
				   4.454178985077
				   4.628773112851
				   4.769543360778
				   4.857844919945
				   4.907247933300
				   4.950146375352
				   4.977308345970
				   4.992833998110
				   5.019341652675
				   5.029596841630
				   5.035588794676
				   5.043855854341
				   5.043402552141
				   5.039766509598
				   5.037008108839
				   5.036197973690
				   5.030668544890
				   5.020467128676
				   5.004492930610
				   4.983941136300
				   4.959823439828
				   4.933773738387
				   4.904981506819
				   4.872023838133
				   4.827122369346
				   4.798505619512
				   4.768743849250
				   4.738780853823
				   4.710891961518
				   4.693671865006
				   4.672057292778
				   4.658718254628
				   4.664118143157
				   4.674347093207
				   4.649011682254
				   4.805713547861
				   2.134431599552
				   1.359245715447
				   1.390584473325
				   1.403192185230
				   1.400001101878
				   1.399991522738
				   1.400019975019
				   1.399997850675
				   1.399999760176
				   1.400000000875
				   1.399999970898
				   1.400000008276
				   1.399999999409
				   1.399999998066
				   1.399999997946
				   1.399999998738
				   1.400000001500
				   1.400000001905
				   1.400000003189
				   1.400000004465
				   1.400000006121
				   1.400000005447
				   1.400000005548
				   1.400000004305
				   1.400000003301
				   1.400000002662
				   1.400000002154
				   0.590676066356
				   0.429702537641
				   0.363590719292
				   0.301000924607
				   0.229126583582
				   0.226493392224
				   0.332377958455
				   0.466268419426
				   0.593296927374
				   0.707304822274
				   0.832894948803
				   0.997165380998
				   1.161509194266
				   1.352287813687
				   1.483146587563
				   1.509216352356
				   1.565154970515
				   1.721075678067
				   1.808146320571
				   1.823134871633
				   1.883776340528
				   1.916415408583
				   1.998752475558
				   2.085975231986
				   2.154205943660
				   2.234540430286
				   2.309220541840
				   2.364458840850
				   2.418701762963
				   2.466325193818
				   2.501978802885
				   2.527039817562
				   2.574361400542
				   2.641182531285
				   2.685173501503
				   2.754377761958
				   2.824556164867
				   2.865517953415
				   2.887740075533
				   2.910643602431
				   2.954424922368
				   3.013021106361
				   3.009121308333
				   3.059792872756
				   3.118601255906
				   3.177519376484
				   3.211551743751
				   3.249202907560
				   3.289971673425
				   3.328737709329
				   3.378579618676
				   3.436788913042
				   3.479947721212
				   3.492572764412
				   3.517687981009
				   3.514189721257
				   3.523604688439
				   3.517280032394
				   3.522536772315
				   3.540821099532
				   3.552469212657
				   3.565116833515
				   3.578700993709
				   3.591575542501
				   3.601802223949
				   3.597950631620
				   3.598677799569
				   3.595674630923
				   3.627238989656
				   3.675376146877
				   3.736952402405
				   3.766999364249
				   3.775060330205
				   3.744164205598
				   3.703174721329
				   3.660778497716
				   3.616840067956
				   3.578851796960
				   3.545321215258
				   3.513796130112
				   3.489858044075
				   3.476589268393
				   3.466165235186
				   3.451504303817
				   3.426247931987
				   3.394446271580
				   3.358648797906
				   3.322018497909
				   3.290518581479
				   3.263571210850
				   3.242246409021
				   3.220203266402
				   3.197419950382
				   3.172667037925
				   3.147203551156
				   3.121357502775
				   3.096694659750
				   3.075271972915
				   3.055096564255
				   3.034901013061
				   3.011695017318
				   2.986197848872
				   2.960223987240
				   2.935929770401
				   2.914974526286
				   2.895244701575
				   2.877735945040
				   2.859520506033
				   2.843102239382
				   2.827745817553
				   2.812771125211
				   2.798267538490
				   2.782697696687
				   2.765662885972
				   2.746857416492
				   2.727977133327
				   2.708526604738
				   2.690663899255
				   2.674087600142
				   2.660125029057
				   2.646069226608
				   2.631697803048
				   2.615416286543
				   2.598988985819
				   2.581894445673
				   2.562491489532
				   2.542992993274
				   2.523105316756
				   2.504685825916
				   2.488626458065
				   2.475863679644
				   2.463188157200
				   2.448297325912
				   2.430703253755
				   2.411257674596
				   2.393117038031
				   2.376596940880
				   2.361257333405
				   2.346554309534
				   2.332943520473
				   2.319681089486
				   2.307736466743
				   2.297512772019
				   2.285907519610
				   2.275250102027
				   2.265406670164
				   2.256204556798
				   2.247548572798
				   2.238709389997
				   2.229684720615
				   2.220266458776
				   2.209930556989
				   2.199486118378
				   2.187427161819
				   2.173889120946
				   2.157776236921
				   2.140199309776
				   2.122188527269
				   2.105487757565
				   2.088897180646
				   2.072289116432
				   2.055357951200
				   2.038711863712
				   2.022696366980
				   2.008248980244
				   1.994231792770
				   1.981386370316
				   1.968713437644
				   1.956932374870
				   1.944740309711
				   1.933102568781
				   1.921051424744
				   1.909435883708
				   1.897385778993
				   1.885084942505
				   1.873844995545
				   1.862503449697
				   1.852245949220
				   1.841361513309
				   1.831794195706
				   1.820737798667
				   1.808611789840
				   1.797139978606
				   1.784541216373
				   1.771654277086
				   1.759901438688
				   1.748520946844
				   1.738027060223
				   1.728269577628
				   1.718822326013
				   1.710034509833
				   1.701525800990
				   1.692930859453
				   1.678687896700
				   1.619434649616
				   1.560580249361
				   1.541476369433
				   1.526928737698
				   1.516544423515
				   1.512743615349
				   1.512141532242
				   1.512967434528
				   1.514864689189
				   1.517120413416
				   1.519244556841
				   1.521309222376
				   1.523199342242
				   1.524903609411
				   1.526707966877
				   1.527535305206
				   1.526977125400
				   1.524404627355
				   1.519631179869
				   1.512628774642
				   1.503909418225
				   1.495247296895
				   1.487821076154
				   1.481882383465
				   1.476057212994
				   1.473505325902
				   1.482717521146
				   1.527747342301
				   1.685984997866
				   1.990164256478
				   2.222366394792
				   2.246597294346
				   2.265886901777
				   2.288875457143
				   2.313933526109
				   2.336275660459
				   2.357733244417
				   2.379746200300
				   2.397890124026
				   2.412849950127
				   2.419974032131
				   2.416903800689
				   2.399855430471
				   2.368624646954
				   2.312846420241
				   2.257934050399
				   2.205018290979
				   2.170178650086
				   2.145346008484
				   2.127088652102
				   2.111361545052
				   2.098513305269
				   2.103782026263
				   2.113910874021
				   2.123332137646
				   2.133182153377
				   2.143008168713
				   2.151668289769
				   2.160128565754
				   2.169193810455
				   2.177749351426
				   2.187145898481
				   2.196118218331
				   2.205746708458
				   2.215416164105
				   2.225046504350
				   2.234298254063
				   2.242999578632
				   2.251497835773
				   2.259436617002
				   2.267296335929
				   2.274780651843
				   2.282517521444
				   2.290174371055
				   2.297575719554
				   2.305345877805
				   2.311965966432
				   2.317281687052
				   2.322643917152
				   2.327989545716
				   2.334165786045
				   2.340435210188
				   2.346686862899
				   2.353660357228
				   2.361952186320
				   2.369409378800
				   2.376102317528
				   2.383403547349
				   2.390961304647
				   2.397107982172
				   2.408248972128
				   2.419136144123
				   2.430390561936
				   2.442959047809
				   2.456069387064
				   2.467126478016
				   2.477581051003
				   2.488328749403
				   2.501260333859
				   2.513406464547
				   2.526282906400
				   2.542102793758
				   2.556109814912
				   2.566144285488
				   2.576085031556
				   2.589879515027
				   2.594463935615
				   2.608208069284
				   2.633553611971
				   2.665723725190
				   2.662213825283
				   2.475174516301
				   2.222200839670
				   1.824107324560
				   1.201727619891
				   1.075679141545
				   1.084726922949
				   1.102638174395
				   1.117071363458
				   1.120080411574
				   1.132534153102
				   1.145331583396
				   1.155698051317
				   1.168349157140
				   1.182864250529
				   1.197499960787
				   1.210797358016
				   1.222382761359
				   1.232585769984
				   1.243622369383
				   1.256743659538
				   1.267975290157
				   1.279704228223
				   1.291982330348
				   1.305228808889
				   1.318876655428
				   1.333483532457
				   1.347927623379
				   1.361146460961
				   1.374693547270
				   1.387443518180
				   1.399634993967
				   1.411870734122
				   1.424930621694
				   1.438486588728
				   1.453690029259
				   1.468405173051
				   1.485431335749
				   1.503456198997
				   1.521420403397
				   1.538705871013
				   1.556145416906
				   1.573743673902
				   1.589989195309
				   1.606310289616
				   1.622595634650
				   1.638601364638
				   1.655648730966
				   1.673308697904
				   1.691172034647
				   1.710467550984
				   1.731771366555
				   1.754258303481
				   1.777524613403
				   1.800973187568
				   1.824242259652
				   1.846979117002
				   1.868171210500
				   1.888972012112
				   1.909750103670
				   1.929156058498
				   1.948839874131
				   1.969342260593
				   1.990950482400
				   2.014322835323
				   2.038343166220
				   2.064587556324
				   2.091455214980
				   2.119144964099
				   2.146519649462
				   2.173707868981
				   2.199683406010
				   2.225770971699
				   2.251396916592
				   2.276463281205
				   2.301680350051
				   2.327617649509
				   2.352974190059
				   2.379888099166
				   2.407777977862
				   2.436689747955
				   2.466487991584
				   2.496953920348
				   2.527052006707
				   2.558550061706
				   2.588218257437
				   2.618180496755
				   2.648388467641
				   2.678562732042
				   2.708085317958
				   2.738156690570
				   2.767810427783
				   2.798077409796
				   2.829945795806
				   2.862071746486
				   2.896252098902
				   2.933238469905
				   2.972025012394
				   3.012782813814
				   3.052509350874
				   3.090523347025
				   3.123924858215
				   3.156835306386
				   3.189150046599
				   3.222882995173
				   3.258632504565
				   3.293278755586
				   3.330771548394
				   3.369171993535
				   3.406269807540
				   3.444468908049
				   3.487338969639
				   3.533160257047
				   3.567193692225
				   3.602175758548
				   3.615294124774
				   3.636967672982
				   3.654083025988
				   3.681800215768
				   3.709950056615
				   3.744476355825
				   3.784248195765
				   3.825515775941
				   3.870001414858
				   3.917870031423
				   3.963689395595
				   4.009138531277
				   4.039568371005
				   4.060468201572
				   4.073634252783
				   4.088494037312
				   4.106306013351
				   4.122946533227
				   4.139177230020
				   4.160695300185
				   4.229403386063
				   4.263742000731
				   4.296748898738
				   4.329728072815
				   4.363914430812
				   4.400195482690
				   4.437723683403
				   4.472648275193
				   4.495497465428
				   4.504796658107
				   4.512223292128
				   4.517640441483
				   4.530317581903
				   4.549782118051
				   4.574610851049
				   4.586557044617
				   4.590165550815
				   4.588616566692
				   4.587324248791
				   4.603947807343
				   4.649699709645
				   4.707149070297
				   4.747201950860
				   4.757681940714
				   4.742452670409
				   4.721437705485
				   4.751196909902
				   4.696537983806
				   5.356083929252
				   2.649735692880
				   1.428649272554
				   1.394864350903
				   1.400014933303
				   1.400003942902
				   1.400000415040
				   1.399999995564
				   1.400000000301
				   1.399999998911
				   1.399999997263
				   1.399999995132
				   1.399999995981
				   1.400000000202
				   1.400000002770
				   1.400000002879
				   1.400000003342
				   1.400000003839
				   1.400000004502
				   1.400000007583
				   1.400000006864
				   1.400000005603
				   1.400000002481
				   1.400000000845
				   1.400000001882
				   1.400000000950
				   1.400000000834
				   1.399999997586
				   1.399999996407
				   1.399999999171
				   1.400000002616
				   1.400000005132
				   1.400000005830
				   1.400000005261
				   1.400000001270
				   1.400000001878
				   1.400000000000
				   1.400000000000
				   1.400000000000
				   1.400000000000
				   1.400000000000
				   1.400000000000
				   1.400000000000
				   1.400000000000
				   1.400000000000
				   1.400000000000
				   1.400000000000
				   1.400000000000
				   1.400000000000
				   1.400000000000
				   1.400000000000
				   1.400000000000
				   1.400000000000
				   1.400000000000
				   1.400000000000
				   1.400000000000
				   1.400000000000
				   1.400000000000
				   1.400000000000
				   1.400000000000
				   1.400000000000
				   1.400000000000
				   1.400000000000
				   1.400000000000
				   1.400000000000
				   1.400000000000
				   1.400000000000
				   1.400000000000
				   1.400000000000
				   1.400000000000
				   1.400000000000
				   1.400000000000
				   1.400000000000
				   1.400000000000
				   1.400000000000
				   1.400000000000
				   1.400000000000
				   1.400000000000
				   1.400000000000
				   1.400000000000
				   1.400000000000
				   1.400000000000
				   1.400000000000
				   1.400000000000
				   1.400000000000
				   1.400000000000
				   1.400000000000
				   1.400000000000
				   1.400000000000
				   4.181015600791
				   4.160090734203
				   4.156017810354
				   4.169599692330
				   4.192734172618
				   4.214494127571
				   4.221777464584
				   4.215474376005
				   4.204160770395
				   4.194880145872
				   4.193323892144
				   4.195481458281
				   4.196949327814
				   4.201151078607
				   4.203866986562
				   4.201155283723
				   4.191147696917
				   4.178777720080
				   4.168620115072
				   4.159965799222
				   4.154552845822
				   4.143626054048
				   4.126377091908
				   4.112730562463
				   4.105315541601
				   4.124760440767
				   4.144211029374
				   4.167620022990
				   4.189515892404
				   4.204805444657
				   4.251506978914
				   4.248655773932
				   4.224230944355
				   4.175273895882
				   4.110773404837
				   4.042618256911
				   3.982538360324
				   3.926712921379
				   3.861129297037
				   3.807760249161
				   3.751476878560
				   3.704492776511
				   3.646320681786
				   3.584221779860
				   3.510931441394
				   3.426707709044
				   3.357328788904
				   3.267251376559
				   3.124026291983
				   2.887690582151
				   2.654575851923
				   2.405350123972
				   1.593258441880
				   1.400000002566
				   1.400000004268
				   1.400000003743
				   1.400000000755
				   1.400000000774
				   1.400000001350
				   1.400000000506
				   1.399999999081
				   1.399999996753
				   1.399999994974
				   1.399999996480
				   1.399999999051
				   1.400000000612
				   1.400000002294
				   1.400000002829
				   1.400000000317
				   1.400000003850
				   1.400000024452
				   1.400000342413
				   1.399996834716
				   1.399992698007
				   1.399999751526
				   1.399921856478
				   1.400749850888
				   1.414492833057
				   1.256712552181
				   3.009072675672
				   4.803244682093
				   4.656499463767
				   4.649081594191
				   4.628588618012
				   4.635424930330
				   4.641546331121
				   4.650693047016
				   4.666019353747
				   4.685279344853
				   4.708457071772
				   4.735846685129
				   4.767659632006
				   4.816278304454
				   4.847977607854
				   4.878419265275
				   4.909651996520
				   4.937213783881
				   4.965469798516
				   4.993200552235
				   5.015863364630
				   5.031918351463
				   5.046124135054
				   5.058546477473
				   5.067644472102
				   5.072797023687
				   5.077741778874
				   5.075013444653
				   5.066780761971
				   5.062396246125
				   5.042503273114
				   5.011903806025
				   4.984819009688
				   4.952901928702
				   4.935925545530
				   4.884284308609
				   4.954227137139
				   4.951165602460
				   1.400000001721
				   1.400000002927
				   1.400000003842
				   1.400000003294
				   1.400000001304
				   1.400000000423
				   1.400000000443
				   1.400000001831
				   1.400000001783
				   1.400000001774
				   1.400000002142
				   1.400000000685
				   1.399999999933
				   1.400000001988
				   1.400000001323
				   1.399999999390
				   1.399999992855
				   1.399999965755
				   1.400000521829
				   1.400001072508
				   1.399990076116
				   1.399989409489
				   1.400213660625
				   1.393295411097
				   1.454838169328
				   1.122888752009
				   3.794530969324
				   4.498225048331
				   4.484743939066
				   4.511526712920
				   4.540121712653
				   4.574771916912
				   4.600194058266
				   4.620435999398
				   4.650544181840
				   4.674568200358
				   4.698599658339
				   4.726591113934
				   4.757477018199
				   4.788932896066
				   4.820100470315
				   4.850511583383
				   4.883864553910
				   4.915667601072
				   4.949384889433
				   4.981260998727
				   5.007666680130
				   5.027963876542
				   5.045360816961
				   5.063095940734
				   5.077900741577
				   5.088729010113
				   5.099980161757
				   5.106654300425
				   5.097198297121
				   5.107030578894
				   5.078229403757
				   5.066331359080
				   5.060481726182
				   5.027837907575
				   4.982185204804
				   4.925491560570
				   4.846531443667
				   4.851516908277
				   1.400000000379
				   1.400000000704
				   1.400000002574
				   1.400000004210
				   1.400000003764
				   1.400000003882
				   1.400000002183
				   1.400000000707
				   1.400000000691
				   1.399999999144
				   1.399999998964
				   1.400000000654
				   1.399999999161
				   1.399999996704
				   1.399999999131
				   1.399999999250
				   1.400000004019
				   1.399999907868
				   1.399999782730
				   1.400002383181
				   1.399992935715
				   1.399861782920
				   1.402801396049
				   1.381499600619
				   1.479048010342
				   1.364189433422
				   4.076172596513
				   4.376129976795
				   4.446967656118
				   4.479782301747
				   4.521105898342
				   4.550413648851
				   4.578672044051
				   4.610093495559
				   4.637511283735
				   4.669499852697
				   4.700783821238
				   4.733946930202
				   4.764814825536
				   4.801580670835
				   4.832071474110
				   4.861958239237
				   4.893014515138
				   4.921654549216
				   4.950891148729
				   4.977623541236
				   4.999762793054
				   5.020452820766
				   5.041147583596
				   5.061967607732
				   5.088386882093
				   5.100069259367
				   5.115200434449
				   5.120413576446
				   5.119581281206
				   5.136435486905
				   5.105622269775
				   5.111069643329
				   5.095568760763
				   5.086379656850
				   5.053097241668
				   5.036566377297
				   5.000434754948
				   4.962506989483
				   1.400000000731
				   1.400000000256
				   1.400000002425
				   1.400000004989
				   1.400000005045
				   1.400000006592
				   1.400000006289
				   1.400000003248
				   1.400000001177
				   1.400000001721
				   1.400000004933
				   1.400000005796
				   1.400000005496
				   1.400000004981
				   1.400000003569
				   1.399999999978
				   1.400000018692
				   1.400000042522
				   1.399999539964
				   1.400003051660
				   1.400052252361
				   1.398960182737
				   1.405838391449
				   1.388448873311
				   1.396201677403
				   1.622909848656
				   4.360560998980
				   4.431660659535
				   4.504492746750
				   4.535267871634
				   4.570223361068
				   4.597062567032
				   4.625464307098
				   4.654654682571
				   4.686905185926
				   4.716517287472
				   4.746033830479
				   4.775676707591
				   4.805787510112
				   4.835235201008
				   4.859297463339
				   4.882924498523
				   4.906890602055
				   4.932612616713
				   4.958635884552
				   4.983262636618
				   5.004203107794
				   5.023291011874
				   5.048345599837
				   5.068481756884
				   5.094508751066
				   5.114493543586
				   5.118675684138
				   5.135564684383
				   5.167850364160
				   5.131519870724
				   5.124345016036
				   5.125890008259
				   5.122315501789
				   5.106541847603
				   5.082046870315
				   5.067782360954
				   5.055727394446
				   5.033895378679
				   1.400000001398
				   1.400000000991
				   1.400000002992
				   1.400000004084
				   1.400000004794
				   1.400000003460
				   1.400000003893
				   1.400000005201
				   1.400000004939
				   1.400000007671
				   1.400000006451
				   1.400000005790
				   1.400000003517
				   1.400000002176
				   1.400000000869
				   1.400000000218
				   1.399999997935
				   1.400000094299
				   1.399999036844
				   1.399983521734
				   1.400317909327
				   1.398421484492
				   1.400742436383
				   1.402320674289
				   1.339926057995
				   1.831126718838
				   4.668608484199
				   4.547897782733
				   4.589340750470
				   4.607354093499
				   4.639708928069
				   4.667849125021
				   4.693550607170
				   4.717695568032
				   4.742046962371
				   4.765640169440
				   4.789092750312
				   4.814274556595
				   4.840156509376
				   4.864157999938
				   4.886453073696
				   4.908488852274
				   4.931096715414
				   4.957043526907
				   4.980832510022
				   5.000491515005
				   5.019605538174
				   5.037068229027
				   5.063634428287
				   5.087629939944
				   5.094638480561
				   5.124554061878
				   5.142929550200
				   5.142204225979
				   5.174307615203
				   5.151259789563
				   5.153024639503
				   5.144716889315
				   5.145537942570
				   5.140631948884
				   5.126088057798
				   5.114429480621
				   5.097052558396
				   5.075009369047
				   1.400000000011
				   1.399999999803
				   1.400000000908
				   1.400000002028
				   1.400000004341
				   1.400000003718
				   1.400000007536
				   1.400000009076
				   1.400000007151
				   1.400000005955
				   1.400000007105
				   1.400000006454
				   1.400000003542
				   1.400000002968
				   1.400000002728
				   1.400000002404
				   1.399999981559
				   1.400000319040
				   1.400004074237
				   1.399927039978
				   1.400211727236
				   1.400151474761
				   1.398908206055
				   1.422417701642
				   1.285582805395
				   2.160780429002
				   4.881499323525
				   4.667855292451
				   4.683238565702
				   4.683967116465
				   4.710512645226
				   4.733592709818
				   4.749706707691
				   4.765104562095
				   4.786943139844
				   4.809078993544
				   4.833458403068
				   4.856246433993
				   4.879681219157
				   4.901654703987
				   4.921513489911
				   4.941757334576
				   4.964192966868
				   4.988087211045
				   5.011444455267
				   5.030512082438
				   5.047827542669
				   5.066283151253
				   5.072677076805
				   5.104029206411
				   5.131287540972
				   5.131521767808
				   5.151289260128
				   5.193715134720
				   5.170609808195
				   5.167887566431
				   5.177238117603
				   5.179407977186
				   5.170903391337
				   5.173320472319
				   5.179935338119
				   5.161469483364
				   5.135577752232
				   5.117883858816
				   1.400000000554
				   1.400000001675
				   1.400000000731
				   1.399999999848
				   1.399999999389
				   1.400000001993
				   1.400000001705
				   1.399999999797
				   1.400000000681
				   1.400000002116
				   1.400000004484
				   1.400000003968
				   1.400000003505
				   1.400000002898
				   1.400000001029
				   1.399999997643
				   1.399999905079
				   1.399999353444
				   1.400012586591
				   1.399982667538
				   1.399975501367
				   1.400605800654
				   1.391642030637
				   1.441407139622
				   1.235193929318
				   2.684981060800
				   4.938207398411
				   4.712336785194
				   4.710689368541
				   4.708233746842
				   4.726935125850
				   4.739394773648
				   4.756104337289
				   4.774091886734
				   4.800834855499
				   4.829251977761
				   4.856737572955
				   4.883073692195
				   4.908613066822
				   4.933134721705
				   4.954358547321
				   4.975516423324
				   4.996480760270
				   5.019212950489
				   5.043937211260
				   5.063290790106
				   5.067014950488
				   5.090310581610
				   5.115188562576
				   5.115027598933
				   5.139074998863
				   5.158310575186
				   5.157221666647
				   5.198845857145
				   5.184904348200
				   5.200850978418
				   5.199906229030
				   5.208102105158
				   5.204430294754
				   5.199234291427
				   5.206976245092
				   5.180282241515
				   5.159370968799
				   5.143262102413
				   1.400000002237
				   1.400000002495
				   1.400000001374
				   1.400000000822
				   1.400000000534
				   1.400000000675
				   1.399999999124
				   1.399999999390
				   1.400000000413
				   1.399999999468
				   1.399999998880
				   1.399999998394
				   1.399999996703
				   1.399999997861
				   1.399999998778
				   1.400000016179
				   1.400000108352
				   1.399997416052
				   1.400000350587
				   1.400005092117
				   1.399754767493
				   1.403047558785
				   1.385649653397
				   1.460407301491
				   1.191503915959
				   3.342250080675
				   4.718452749923
				   4.609888415864
				   4.649798418321
				   4.649436375436
				   4.672337164015
				   4.687641060613
				   4.718383091214
				   4.747935284673
				   4.785969589330
				   4.820718272969
				   4.852336596916
				   4.884474376532
				   4.914892370616
				   4.942105781893
				   4.970610176728
				   4.997193094955
				   5.023335258200
				   5.052823470619
				   5.075225167530
				   5.089224628752
				   5.106082864445
				   5.110016770610
				   5.131699932898
				   5.151702479228
				   5.150843565989
				   5.169403804421
				   5.206209358196
				   5.189074093344
				   5.189120915811
				   5.202195020598
				   5.213886646613
				   5.213567642537
				   5.215020957469
				   5.218793618510
				   5.195253611172
				   5.183916591342
				   5.181618941505
				   5.163818705178
				   1.400000000518
				   1.399999999860
				   1.399999999402
				   1.400000001966
				   1.400000000164
				   1.399999999972
				   1.400000000714
				   1.400000001728
				   1.399999998694
				   1.399999996255
				   1.399999997688
				   1.399999998930
				   1.399999997311
				   1.399999995983
				   1.400000000530
				   1.399999974407
				   1.400000584999
				   1.400000418585
				   1.399997987672
				   1.400090281695
				   1.398930538429
				   1.404991767959
				   1.379043368930
				   1.474527518281
				   1.190946525468
				   3.795462868132
				   4.488457891673
				   4.468260603517
				   4.542051080992
				   4.560368615698
				   4.602970408738
				   4.627569657995
				   4.663006448091
				   4.698696122944
				   4.748374007080
				   4.789126295959
				   4.836428007662
				   4.875205863239
				   4.912477921416
				   4.946573656336
				   4.975335007661
				   5.007088511243
				   5.036088283273
				   5.067222985131
				   5.095750575537
				   5.114225654780
				   5.115034747437
				   5.142447010114
				   5.142756527225
				   5.158166287453
				   5.175690827765
				   5.174940815541
				   5.199482418828
				   5.191385438506
				   5.200006800668
				   5.200584145984
				   5.214850742167
				   5.222362537182
				   5.219118995568
				   5.211974569435
				   5.213021785864
				   5.205574429802
				   5.189712464125
				   5.184991385498
				   1.399999998140