<VTKFile type="UnstructuredGrid" version="0.1" byte_order="BigEndian">
	<UnstructuredGrid>
		<Piece NumberOfPoints="1681" NumberOfCells="3200">
			<PointData Scalars="scalars" Vectors = "Velocity">
				<DataArray type="Float32" Name="Velocity" NumberOfComponents="3" Format="ascii">
				   0.000000000000   0.000000000000   0.000000000000
				   0.000000000000   0.000000000000   0.000000000000
				   0.000000000000   0.000000000000   0.000000000000
				   0.000000000000   0.000000000000   0.000000000000
				   0.000000000000   0.000000000000   0.000000000000
				   0.000000000000   0.000000000000   0.000000000000
				   0.000000000000   0.000000000000   0.000000000000
				   0.000000000000   0.000000000000   0.000000000000
				   0.000000000000   0.000000000000   0.000000000000
				   0.000000000000   0.000000000000   0.000000000000
				   0.000000000000   0.000000000000   0.000000000000
				   0.000000000000   0.000000000000   0.000000000000
				   0.000000000000   0.000000000000   0.000000000000
				   0.000000000000   0.000000000000   0.000000000000
				   0.000000000000   0.000000000000   0.000000000000
				   0.000000000000   0.000000000000   0.000000000000
				   0.000000000000   0.000000000000   0.000000000000
				   0.000000000000   0.000000000000   0.000000000000
				   0.000000000000   0.000000000000   0.000000000000
				   0.000000000000   0.000000000000   0.000000000000
				   0.000000000000   0.000000000000   0.000000000000
				   0.000000000000   0.000000000000   0.000000000000
				   0.000000000000   0.000000000000   0.000000000000
				   0.000000000000   0.000000000000   0.000000000000
				   0.000000000000   0.000000000000   0.000000000000
				   0.000000000000   0.000000000000   0.000000000000
				   0.000000000000   0.000000000000   0.000000000000
				   0.000000000000   0.000000000000   0.000000000000
				   0.000000000000   0.000000000000   0.000000000000
				   0.000000000000   0.000000000000   0.000000000000
				   0.000000000000   0.000000000000   0.000000000000
				   0.000000000000   0.000000000000   0.000000000000
				   0.000000000000   0.000000000000   0.000000000000
				   0.000000000000   0.000000000000   0.000000000000
				   0.000000000000   0.000000000000   0.000000000000
				   0.000000000000   0.000000000000   0.000000000000
				   0.000000000000   0.000000000000   0.000000000000
				   0.000000000000   0.000000000000   0.000000000000
				   0.000000000000   0.000000000000   0.000000000000
				   0.000000000000   0.000000000000   0.000000000000
				   0.000000000000   0.000000000000   0.000000000000
				   0.000000000000   0.000000000000   0.000000000000
				   -0.000005145778   -0.000020048590   0.000000000000
				   0.000001451876   -0.000021677130   0.000000000000
				   -0.000005688289   -0.000010342734   0.000000000000
				   -0.000037091505   0.000004474838   0.000000000000
				   -0.000102531818   0.000019969730   0.000000000000
				   -0.000210746047   0.000036116379   0.000000000000
				   -0.000365511314   0.000051699520   0.000000000000
				   -0.000571142820   0.000066533465   0.000000000000
				   -0.000827253748   0.000079691515   0.000000000000
				   -0.001133556540   0.000090506926   0.000000000000
				   -0.001485323393   0.000097930697   0.000000000000
				   -0.001877873484   0.000101724239   0.000000000000
				   -0.002301350735   0.000102412439   0.000000000000
				   -0.002748982536   0.000100321498   0.000000000000
				   -0.003205637437   0.000094731354   0.000000000000
				   -0.003654650667   0.000085985931   0.000000000000
				   -0.004077010311   0.000075517328   0.000000000000
				   -0.004447068397   0.000061511078   0.000000000000
				   -0.004733790777   0.000040487082   0.000000000000
				   -0.004891779629   0.000010855722   0.000000000000
				   -0.004878165900   -0.000019918837   0.000000000000
				   -0.004703146481   -0.000045542334   0.000000000000
				   -0.004399472773   -0.000068191374   0.000000000000
				   -0.004000175220   -0.000087048435   0.000000000000
				   -0.003539430732   -0.000101203698   0.000000000000
				   -0.003046811624   -0.000110505334   0.000000000000
				   -0.002550741352   -0.000114385939   0.000000000000
				   -0.002074940241   -0.000112695586   0.000000000000
				   -0.001636846940   -0.000106062809   0.000000000000
				   -0.001244708060   -0.000094867066   0.000000000000
				   -0.000910605274   -0.000080324950   0.000000000000
				   -0.000634136953   -0.000063741434   0.000000000000
				   -0.000415678067   -0.000045943920   0.000000000000
				   -0.000252283170   -0.000027193559   0.000000000000
				   -0.000139044170   -0.000007884949   0.000000000000
				   -0.000067512832   0.000010992233   0.000000000000
				   -0.000027455097   0.000026691786   0.000000000000
				   -0.000007433936   0.000032177791   0.000000000000
				   0.000002186535   0.000018810913   0.000000000000
				   0.000000000000   0.000000000000   0.000000000000
				   0.000000000000   0.000000000000   0.000000000000
				   -0.000009920874   -0.000034254486   0.000000000000
				   -0.000016478757   -0.000026705918   0.000000000000
				   -0.000052386059   0.000010501624   0.000000000000
				   -0.000135435875   0.000061135323   0.000000000000
				   -0.000281177947   0.000117239883   0.000000000000
				   -0.000506206272   0.000175357071   0.000000000000
				   -0.000818003837   0.000230303424   0.000000000000
				   -0.001226429135   0.000280230151   0.000000000000
				   -0.001732011160   0.000322436976   0.000000000000
				   -0.002335123352   0.000355323372   0.000000000000
				   -0.003026589038   0.000377153345   0.000000000000
				   -0.003797462043   0.000387575411   0.000000000000
				   -0.004628699869   0.000386692589   0.000000000000
				   -0.005507869064   0.000374521680   0.000000000000
				   -0.006404679582   0.000351146906   0.000000000000
				   -0.007285528880   0.000317452682   0.000000000000
				   -0.008114039426   0.000272028285   0.000000000000
				   -0.008838738760   0.000213256407   0.000000000000
				   -0.009396667246   0.000139012761   0.000000000000
				   -0.009700277673   0.000042822298   0.000000000000
				   -0.009666726148   -0.000062500446   0.000000000000
				   -0.009316967169   -0.000158118873   0.000000000000
				   -0.008716333650   -0.000244217841   0.000000000000
				   -0.007929879241   -0.000317750179   0.000000000000
				   -0.007024705348   -0.000374746770   0.000000000000
				   -0.006058274900   -0.000413937148   0.000000000000
				   -0.005085398507   -0.000434106554   0.000000000000
				   -0.004151671696   -0.000435570603   0.000000000000
				   -0.003290811980   -0.000419775867   0.000000000000
				   -0.002517970082   -0.000388305850   0.000000000000
				   -0.001857121655   -0.000344303743   0.000000000000
				   -0.001307808520   -0.000290759379   0.000000000000
				   -0.000870092030   -0.000230726604   0.000000000000
				   -0.000537744136   -0.000166947574   0.000000000000
				   -0.000301318840   -0.000102841368   0.000000000000
				   -0.000145988145   -0.000042078692   0.000000000000
				   -0.000056125760   0.000011038648   0.000000000000
				   -0.000018644064   0.000049452765   0.000000000000
				   -0.000013972735   0.000059941442   0.000000000000
				   0.000000000000   0.000000000000   0.000000000000
				   0.000000000000   0.000000000000   0.000000000000
				   -0.000015705266   -0.000035376347   0.000000000000
				   -0.000050282090   -0.000002619220   0.000000000000
				   -0.000133092513   0.000080485135   0.000000000000
				   -0.000286088730   0.000189776829   0.000000000000
				   -0.000528457101   0.000311455459   0.000000000000
				   -0.000882993195   0.000437778990   0.000000000000
				   -0.001359657145   0.000557572578   0.000000000000
				   -0.001974055195   0.000665798485   0.000000000000
				   -0.002728268224   0.000756520578   0.000000000000
				   -0.003624054286   0.000826451250   0.000000000000
				   -0.004648573584   0.000872531090   0.000000000000
				   -0.005789459240   0.000893731547   0.000000000000
				   -0.007019133842   0.000889260735   0.000000000000
				   -0.008319435943   0.000859075973   0.000000000000
				   -0.009645149287   0.000803850295   0.000000000000
				   -0.010946593092   0.000723723321   0.000000000000
				   -0.012169548476   0.000615554563   0.000000000000
				   -0.013235962083   0.000477626661   0.000000000000
				   -0.014052294226   0.000306503336   0.000000000000
				   -0.014491188384   0.000092518729   0.000000000000
				   -0.014431996432   -0.000140839859   0.000000000000
				   -0.013907619379   -0.000358866344   0.000000000000
				   -0.013015345834   -0.000556096368   0.000000000000
				   -0.011851290934   -0.000724147572   0.000000000000
				   -0.010514770713   -0.000855336396   0.000000000000
				   -0.009089835954   -0.000946498276   0.000000000000
				   -0.007656287359   -0.000995720030   0.000000000000
				   -0.006280023910   -0.001003715195   0.000000000000
				   -0.005010088840   -0.000973702195   0.000000000000
				   -0.003867486714   -0.000909428850   0.000000000000
				   -0.002887271800   -0.000817293898   0.000000000000
				   -0.002068412159   -0.000703052591   0.000000000000
				   -0.001410222161   -0.000573325396   0.000000000000
				   -0.000903271599   -0.000434979652   0.000000000000
				   -0.000534241987   -0.000296468633   0.000000000000
				   -0.000282860133   -0.000165827431   0.000000000000
				   -0.000128034628   -0.000049613410   0.000000000000
				   -0.000052135517   0.000043202355   0.000000000000
				   -0.000026041830   0.000085130901   0.000000000000
				   0.000000000000   0.000000000000   0.000000000000
				   0.000000000000   0.000000000000   0.000000000000
				   -0.000024500767   -0.000006355519   0.000000000000
				   -0.000095678678   0.000074593703   0.000000000000
				   -0.000238153056   0.000225923343   0.000000000000
				   -0.000475054744   0.000417050623   0.000000000000
				   -0.000827235148   0.000628256331   0.000000000000
				   -0.001322081058   0.000847456189   0.000000000000
				   -0.001970499296   0.001056138080   0.000000000000
				   -0.002793255991   0.001245019289   0.000000000000
				   -0.003793779311   0.001403682034   0.000000000000
				   -0.004975546350   0.001526209733   0.000000000000
				   -0.006322943667   0.001606999870   0.000000000000
				   -0.007821201206   0.001643286675   0.000000000000
				   -0.009434820897   0.001633276825   0.000000000000
				   -0.011140132040   0.001576728663   0.000000000000
				   -0.012877994849   0.001473764035   0.000000000000
				   -0.014583407160   0.001323249624   0.000000000000
				   -0.016183731845   0.001121971552   0.000000000000
				   -0.017575120725   0.000866983945   0.000000000000
				   -0.018635021615   0.000550740738   0.000000000000
				   -0.019198578259   0.000161376195   0.000000000000
				   -0.019109873744   -0.000261093382   0.000000000000
				   -0.018414177757   -0.000658636147   0.000000000000
				   -0.017239803820   -0.001017337955   0.000000000000
				   -0.015713152707   -0.001323098368   0.000000000000
				   -0.013964173192   -0.001562592546   0.000000000000
				   -0.012102079489   -0.001730207666   0.000000000000
				   -0.010229759050   -0.001822429388   0.000000000000
				   -0.008432014068   -0.001840920495   0.000000000000
				   -0.006771794781   -0.001791608597   0.000000000000
				   -0.005274895722   -0.001681769841   0.000000000000
				   -0.003986207814   -0.001522673034   0.000000000000
				   -0.002903556116   -0.001324323303   0.000000000000
				   -0.002025370935   -0.001098279710   0.000000000000
				   -0.001339399286   -0.000856817422   0.000000000000
				   -0.000829149386   -0.000614750231   0.000000000000
				   -0.000469499470   -0.000385574360   0.000000000000
				   -0.000233541776   -0.000179850249   0.000000000000
				   -0.000098452422   -0.000013629620   0.000000000000
				   -0.000034525922   0.000073628026   0.000000000000
				   0.000000000000   0.000000000000   0.000000000000
				   0.000000000000   0.000000000000   0.000000000000
				   -0.000034789972   0.000062479003   0.000000000000
				   -0.000146033000   0.000222725977   0.000000000000
				   -0.000355014646   0.000469122192   0.000000000000
				   -0.000684541680   0.000767139157   0.000000000000
				   -0.001155608182   0.001091955408   0.000000000000
				   -0.001798808637   0.001427801070   0.000000000000
				   -0.002624439029   0.001748156717   0.000000000000
				   -0.003657246138   0.002039106643   0.000000000000
				   -0.004901238395   0.002284663453   0.000000000000
				   -0.006361701210   0.002474972982   0.000000000000
				   -0.008020848858   0.002600447898   0.000000000000
				   -0.009862017043   0.002655872032   0.000000000000
				   -0.011842375465   0.002638044919   0.000000000000
				   -0.013933611133   0.002545504301   0.000000000000
				   -0.016063901631   0.002376861655   0.000000000000
				   -0.018152769563   0.002131053337   0.000000000000
				   -0.020110210283   0.001803715535   0.000000000000
				   -0.021808126677   0.001389099607   0.000000000000
				   -0.023096319891   0.000875446063   0.000000000000
				   -0.023774391780   0.000249774897   0.000000000000
				   -0.023653706997   -0.000425618526   0.000000000000
				   -0.022792124725   -0.001063172336   0.000000000000
				   -0.021348307241   -0.001638394225   0.000000000000
				   -0.019477011814   -0.002128609435   0.000000000000
				   -0.017337296778   -0.002513479541   0.000000000000
				   -0.015061469315   -0.002783313948   0.000000000000
				   -0.012773972871   -0.002933190454   0.000000000000
				   -0.010576963958   -0.002966565253   0.000000000000
				   -0.008545941041   -0.002893199073   0.000000000000
				   -0.006710570644   -0.002725211239   0.000000000000
				   -0.005124435073   -0.002480613182   0.000000000000
				   -0.003783880314   -0.002175297931   0.000000000000
				   -0.002686547500   -0.001827342322   0.000000000000
				   -0.001817957647   -0.001455698512   0.000000000000
				   -0.001159335359   -0.001082676062   0.000000000000
				   -0.000681629543   -0.000728116164   0.000000000000
				   -0.000353382090   -0.000407456389   0.000000000000
				   -0.000149447559   -0.000143884491   0.000000000000
				   -0.000042366748   0.000016696417   0.000000000000
				   0.000000000000   0.000000000000   0.000000000000
				   0.000000000000   0.000000000000   0.000000000000
				   -0.000046163412   0.000179317424   0.000000000000
				   -0.000199141285   0.000459027220   0.000000000000
				   -0.000478769997   0.000835172718   0.000000000000
				   -0.000907140256   0.001271151082   0.000000000000
				   -0.001504586913   0.001737919626   0.000000000000
				   -0.002303982449   0.002217075867   0.000000000000
				   -0.003313544037   0.002673913481   0.000000000000
				   -0.004560760772   0.003089955643   0.000000000000
				   -0.006049424332   0.003442408678   0.000000000000
				   -0.007786406849   0.003716137620   0.000000000000
				   -0.009751685000   0.003896419137   0.000000000000
				   -0.011926810278   0.003974795172   0.000000000000
				   -0.014262294310   0.003945628413   0.000000000000
				   -0.016726171329   0.003804876773   0.000000000000
				   -0.019234150516   0.003550048853   0.000000000000
				   -0.021690926229   0.003179446465   0.000000000000
				   -0.023990224719   0.002686489127   0.000000000000
				   -0.025980918621   0.002062887752   0.000000000000
				   -0.027486230858   0.001292602612   0.000000000000
				   -0.028271844448   0.000361507663   0.000000000000
				   -0.028117988609   -0.000640741092   0.000000000000
				   -0.027095637831   -0.001589660588   0.000000000000
				   -0.025392389400   -0.002445338579   0.000000000000
				   -0.023190102159   -0.003174147188   0.000000000000
				   -0.020675000516   -0.003746077806   0.000000000000
				   -0.018001601515   -0.004147531862   0.000000000000
				   -0.015314735825   -0.004372600503   0.000000000000
				   -0.012732514412   -0.004426668596   0.000000000000
				   -0.010342240834   -0.004324877079   0.000000000000
				   -0.008176793722   -0.004085718982   0.000000000000
				   -0.006297791788   -0.003735865600   0.000000000000
				   -0.004700062507   -0.003299047184   0.000000000000
				   -0.003380740359   -0.002801611196   0.000000000000
				   -0.002323862890   -0.002270559254   0.000000000000
				   -0.001509475468   -0.001736748579   0.000000000000
				   -0.000905890964   -0.001226797664   0.000000000000
				   -0.000478789680   -0.000760510211   0.000000000000
				   -0.000202639191   -0.000366330619   0.000000000000
				   -0.000051629938   -0.000092292748   0.000000000000
				   0.000000000000   0.000000000000   0.000000000000
				   0.000000000000   0.000000000000   0.000000000000
				   -0.000058048654   0.000347933769   0.000000000000
				   -0.000252259687   0.000792267004   0.000000000000
				   -0.000602986936   0.001337468964   0.000000000000
				   -0.001131719268   0.001945705026   0.000000000000
				   -0.001857861877   0.002584405349   0.000000000000
				   -0.002815876918   0.003233776487   0.000000000000
				   -0.004010891009   0.003851078441   0.000000000000
				   -0.005472273606   0.004413458807   0.000000000000
				   -0.007202826140   0.004890491233   0.000000000000
				   -0.009210256078   0.005261062519   0.000000000000
				   -0.011471866960   0.005504449631   0.000000000000
				   -0.013967501022   0.005607941234   0.000000000000
				   -0.016641933509   0.005562017246   0.000000000000
				   -0.019459772936   0.005359774309   0.000000000000
				   -0.022324991081   0.004997262392   0.000000000000
				   -0.025128819769   0.004471601420   0.000000000000
				   -0.027750206656   0.003772798936   0.000000000000
				   -0.030016515574   0.002889872140   0.000000000000
				   -0.031726396186   0.001802627817   0.000000000000
				   -0.032613986596   0.000495083668   0.000000000000
				   -0.032429849895   -0.000909700348   0.000000000000
				   -0.031256862862   -0.002241725688   0.000000000000
				   -0.029309642186   -0.003441885169   0.000000000000
				   -0.026795014270   -0.004462969654   0.000000000000
				   -0.023924785270   -0.005264496188   0.000000000000
				   -0.020874302160   -0.005828568894   0.000000000000
				   -0.017806983613   -0.006147187886   0.000000000000
				   -0.014856294224   -0.006229086514   0.000000000000
				   -0.012120466043   -0.006096055664   0.000000000000
				   -0.009635252608   -0.005774312697   0.000000000000
				   -0.007470112918   -0.005301345168   0.000000000000
				   -0.005618611968   -0.004710349513   0.000000000000
				   -0.004077915122   -0.004037484047   0.000000000000
				   -0.002831436781   -0.003318916502   0.000000000000
				   -0.001859115868   -0.002594701985   0.000000000000
				   -0.001127810588   -0.001898004410   0.000000000000
				   -0.000601404730   -0.001251805741   0.000000000000
				   -0.000254580445   -0.000688172783   0.000000000000
				   -0.000061895197   -0.000254918035   0.000000000000
				   0.000000000000   0.000000000000   0.000000000000
				   0.000000000000   0.000000000000   0.000000000000
				   -0.000071195166   0.000574887658   0.000000000000
				   -0.000305776308   0.001237256280   0.000000000000
				   -0.000726892260   0.001999526076   0.000000000000
				   -0.001355999318   0.002822484327   0.000000000000
				   -0.002211615403   0.003670254668   0.000000000000
				   -0.003329539294   0.004522638137   0.000000000000
				   -0.004711468094   0.005328466628   0.000000000000
				   -0.006388114955   0.006060832764   0.000000000000
				   -0.008360384664   0.006681328927   0.000000000000
				   -0.010635885701   0.007162525182   0.000000000000
				   -0.013188791239   0.007476694794   0.000000000000
				   -0.015997337767   0.007605589674   0.000000000000
				   -0.019000600087   0.007535356479   0.000000000000
				   -0.022159837613   0.007255710296   0.000000000000
				   -0.025368243473   0.006760420776   0.000000000000
				   -0.028505152110   0.006044069605   0.000000000000
				   -0.031435597435   0.005093341804   0.000000000000
				   -0.033967152052   0.003893855472   0.000000000000
				   -0.035875844616   0.002419696589   0.000000000000
				   -0.036865496333   0.000654221128   0.000000000000
				   -0.036657598433   -0.001239467381   0.000000000000
				   -0.035344834888   -0.003036416164   0.000000000000
				   -0.033166931202   -0.004654978739   0.000000000000
				   -0.030353915836   -0.006031951791   0.000000000000
				   -0.027141988542   -0.007114117246   0.000000000000
				   -0.023725769183   -0.007877185321   0.000000000000
				   -0.020287303887   -0.008311954451   0.000000000000
				   -0.016974933894   -0.008431147457   0.000000000000
				   -0.013897724830   -0.008264638954   0.000000000000
				   -0.011094727130   -0.007848585921   0.000000000000
				   -0.008643415336   -0.007233175335   0.000000000000
				   -0.006536680776   -0.006462680755   0.000000000000
				   -0.004772536852   -0.005584575768   0.000000000000
				   -0.003334506907   -0.004645203863   0.000000000000
				   -0.002203081252   -0.003694383695   0.000000000000
				   -0.001344168949   -0.002771626233   0.000000000000
				   -0.000720049107   -0.001902160793   0.000000000000
				   -0.000305296020   -0.001121037769   0.000000000000
				   -0.000073477370   -0.000475334966   0.000000000000
				   0.000000000000   0.000000000000   0.000000000000
				   0.000000000000   0.000000000000   0.000000000000
				   -0.000085229503   0.000864003804   0.000000000000
				   -0.000358550407   0.001803043363   0.000000000000
				   -0.000847648661   0.002836402053   0.000000000000
				   -0.001574594691   0.003922452471   0.000000000000
				   -0.002557375599   0.005021591509   0.000000000000
				   -0.003833423682   0.006113583468   0.000000000000
				   -0.005401029032   0.007138212939   0.000000000000
				   -0.007291757007   0.008065128904   0.000000000000
				   -0.009503879223   0.008847862015   0.000000000000
				   -0.012044338972   0.009452259769   0.000000000000
				   -0.014883705894   0.009842829564   0.000000000000
				   -0.017998215898   0.009995416462   0.000000000000
				   -0.021321044562   0.009891361977   0.000000000000
				   -0.024810472977   0.009516110916   0.000000000000
				   -0.028350084595   0.008859993818   0.000000000000
				   -0.031808150522   0.007915351704   0.000000000000
				   -0.035037607082   0.006664147491   0.000000000000
				   -0.037828221911   0.005087465388   0.000000000000
				   -0.039934728432   0.003154135626   0.000000000000
				   -0.041032582975   0.000845183227   0.000000000000
				   -0.040813141630   -0.001629210473   0.000000000000
				   -0.039375909214   -0.003979582878   0.000000000000
				   -0.036983102099   -0.006097738842   0.000000000000
				   -0.033885912913   -0.007900905482   0.000000000000
				   -0.030342993888   -0.009319346169   0.000000000000
				   -0.026568526513   -0.010322487913   0.000000000000
				   -0.022763075538   -0.010899438001   0.000000000000
				   -0.019090193876   -0.011067556589   0.000000000000
				   -0.015670941977   -0.010867299939   0.000000000000
				   -0.012547935997   -0.010346128992   0.000000000000
				   -0.009807385463   -0.009568701980   0.000000000000
				   -0.007442586605   -0.008592128586   0.000000000000
				   -0.005453170443   -0.007476564324   0.000000000000
				   -0.003823206766   -0.006279251228   0.000000000000
				   -0.002533905645   -0.005060370238   0.000000000000
				   -0.001550131154   -0.003865935012   0.000000000000
				   -0.000832095670   -0.002723097080   0.000000000000
				   -0.000353442121   -0.001670332202   0.000000000000
				   -0.000085578960   -0.000754916238   0.000000000000
				   0.000000000000   0.000000000000   0.000000000000
				   0.000000000000   0.000000000000   0.000000000000
				   -0.000099958732   0.001221515297   0.000000000000
				   -0.000410571305   0.002503135582   0.000000000000
				   -0.000964953468   0.003869841100   0.000000000000
				   -0.001786582780   0.005275738006   0.000000000000
				   -0.002893668118   0.006676197973   0.000000000000
				   -0.004325670883   0.008051035309   0.000000000000
				   -0.006077543278   0.009330104608   0.000000000000
				   -0.008181522189   0.010480044951   0.000000000000
				   -0.010633080357   0.011445809824   0.000000000000
				   -0.013437892039   0.012186465243   0.000000000000
				   -0.016562453138   0.012658443521   0.000000000000
				   -0.019980386146   0.012831448281   0.000000000000
				   -0.023618856665   0.012681675327   0.000000000000
				   -0.027433628450   0.012189320730   0.000000000000
				   -0.031299204334   0.011341200749   0.000000000000
				   -0.035074343158   0.010125895230   0.000000000000
				   -0.038601248731   0.008519985638   0.000000000000
				   -0.041653208184   0.006500406840   0.000000000000
				   -0.043966216338   0.004027399116   0.000000000000
				   -0.045187850073   0.001078983284   0.000000000000
				   -0.044976900380   -0.002080513796   0.000000000000
				   -0.043434933431   -0.005086124252   0.000000000000
				   -0.040843280395   -0.007797397138   0.000000000000
				   -0.037472045672   -0.010107887769   0.000000000000
				   -0.033602011822   -0.011929139420   0.000000000000
				   -0.029467144835   -0.013222143329   0.000000000000
				   -0.025287722203   -0.013973637892   0.000000000000
				   -0.021244695810   -0.014207344913   0.000000000000
				   -0.017472149645   -0.013975070895   0.000000000000
				   -0.014017188553   -0.013336927105   0.000000000000
				   -0.010976778879   -0.012374830724   0.000000000000
				   -0.008345642693   -0.011160775821   0.000000000000
				   -0.006125419614   -0.009768862540   0.000000000000
				   -0.004300813160   -0.008268198939   0.000000000000
				   -0.002853630654   -0.006730493433   0.000000000000
				   -0.001747062837   -0.005209053287   0.000000000000
				   -0.000938380120   -0.003733269689   0.000000000000
				   -0.000399262353   -0.002346436744   0.000000000000
				   -0.000097876177   -0.001097893231   0.000000000000
				   0.000000000000   0.000000000000   0.000000000000
				   0.000000000000   0.000000000000   0.000000000000
				   -0.000114658056   0.001651382958   0.000000000000
				   -0.000460882096   0.003345935862   0.000000000000
				   -0.001077754517   0.005113408854   0.000000000000
				   -0.001990836074   0.006901292671   0.000000000000
				   -0.003219079440   0.008658328848   0.000000000000
				   -0.004804238072   0.010364274077   0.000000000000
				   -0.006738365993   0.011937551788   0.000000000000
				   -0.009054653198   0.013341682208   0.000000000000
				   -0.011745488540   0.014512761935   0.000000000000
				   -0.014815046881   0.015403089263   0.000000000000
				   -0.018225295379   0.015960918097   0.000000000000
				   -0.021946812210   0.016149844842   0.000000000000
				   -0.025900903103   0.015940441792   0.000000000000
				   -0.030040914622   0.015307521216   0.000000000000
				   -0.034233360133   0.014233482068   0.000000000000
				   -0.038328255625   0.012703613286   0.000000000000
				   -0.042158742062   0.010687993759   0.000000000000
				   -0.045484151280   0.008156524575   0.000000000000
				   -0.048023130388   0.005059734822   0.000000000000
				   -0.049395661068   0.001370631903   0.000000000000
				   -0.049223641388   -0.002585185721   0.000000000000
				   -0.047603728934   -0.006355876328   0.000000000000
				   -0.044832342135   -0.009763995012   0.000000000000
				   -0.041196415929   -0.012675045647   0.000000000000
				   -0.036998166109   -0.014976793394   0.000000000000
				   -0.032492857217   -0.016619808750   0.000000000000
				   -0.027923097184   -0.017587447170   0.000000000000
				   -0.023489562519   -0.017908784075   0.000000000000
				   -0.019341127614   -0.017647625557   0.000000000000
				   -0.015532620318   -0.016879795184   0.000000000000
				   -0.012174139799   -0.015707577312   0.000000000000
				   -0.009262207223   -0.014219501688   0.000000000000
				   -0.006800709951   -0.012505262112   0.000000000000
				   -0.004775213696   -0.010647735947   0.000000000000
				   -0.003167481254   -0.008732058712   0.000000000000
				   -0.001938050566   -0.006820166167   0.000000000000
				   -0.001040284988   -0.004944631193   0.000000000000
				   -0.000442865396   -0.003155561696   0.000000000000
				   -0.000109783126   -0.001506647418   0.000000000000
				   0.000000000000   0.000000000000   0.000000000000
				   0.000000000000   0.000000000000   0.000000000000
				   -0.000129192215   0.002161618095   0.000000000000
				   -0.000510192864   0.004347388058   0.000000000000
				   -0.001188199815   0.006591376948   0.000000000000
				   -0.002191265787   0.008832141605   0.000000000000
				   -0.003539357372   0.011009887507   0.000000000000
				   -0.005277232187   0.013103591973   0.000000000000
				   -0.007394570951   0.015017950695   0.000000000000
				   -0.009925416573   0.016713484065   0.000000000000
				   -0.012859230052   0.018116710242   0.000000000000
				   -0.016198752093   0.019172876943   0.000000000000
				   -0.019900921096   0.019822072948   0.000000000000
				   -0.023933406024   0.020021636810   0.000000000000
				   -0.028211353196   0.019736933459   0.000000000000
				   -0.032686274117   0.018936967621   0.000000000000
				   -0.037217054357   0.017600180475   0.000000000000
				   -0.041646408548   0.015707729177   0.000000000000
				   -0.045800581196   0.013221444716   0.000000000000
				   -0.049426447815   0.010103482677   0.000000000000
				   -0.052226824247   0.006291469775   0.000000000000
				   -0.053793596916   0.001750496424   0.000000000000
				   -0.053705260654   -0.003127578997   0.000000000000
				   -0.052043912989   -0.007792418156   0.000000000000
				   -0.049115959712   -0.012022971640   0.000000000000
				   -0.045222436814   -0.015650328707   0.000000000000
				   -0.040687107280   -0.018532338892   0.000000000000