<VTKFile type="UnstructuredGrid" version="0.1" byte_order="BigEndian">
	<UnstructuredGrid>
		<Piece NumberOfPoints="1681" NumberOfCells="3200">
			<PointData Scalars="scalars" Vectors = "Velocity">
				<DataArray type="Float32" Name="Velocity" NumberOfComponents="3" Format="ascii">
				   0.000000000000   0.000000000000   0.000000000000
				   0.000000000000   0.000000000000   0.000000000000
				   0.000000000000   0.000000000000   0.000000000000
				   0.000000000000   0.000000000000   0.000000000000
				   0.000000000000   0.000000000000   0.000000000000
				   0.000000000000   0.000000000000   0.000000000000
				   0.000000000000   0.000000000000   0.000000000000
				   0.000000000000   0.000000000000   0.000000000000
				   0.000000000000   0.000000000000   0.000000000000
				   0.000000000000   0.000000000000   0.000000000000
				   0.000000000000   0.000000000000   0.000000000000
				   0.000000000000   0.000000000000   0.000000000000
				   0.000000000000   0.000000000000   0.000000000000
				   0.000000000000   0.000000000000   0.000000000000
				   0.000000000000   0.000000000000   0.000000000000
				   0.000000000000   0.000000000000   0.000000000000
				   0.000000000000   0.000000000000   0.000000000000
				   0.000000000000   0.000000000000   0.000000000000
				   0.000000000000   0.000000000000   0.000000000000
				   0.000000000000   0.000000000000   0.000000000000
				   0.000000000000   0.000000000000   0.000000000000
				   0.000000000000   0.000000000000   0.000000000000
				   0.000000000000   0.000000000000   0.000000000000
				   0.000000000000   0.000000000000   0.000000000000
				   0.000000000000   0.000000000000   0.000000000000
				   0.000000000000   0.000000000000   0.000000000000
				   0.000000000000   0.000000000000   0.000000000000
				   0.000000000000   0.000000000000   0.000000000000
				   0.000000000000   0.000000000000   0.000000000000
				   0.000000000000   0.000000000000   0.000000000000
				   0.000000000000   0.000000000000   0.000000000000
				   0.000000000000   0.000000000000   0.000000000000
				   0.000000000000   0.000000000000   0.000000000000
				   0.000000000000   0.000000000000   0.000000000000
				   0.000000000000   0.000000000000   0.000000000000
				   0.000000000000   0.000000000000   0.000000000000
				   0.000000000000   0.000000000000   0.000000000000
				   0.000000000000   0.000000000000   0.000000000000
				   0.000000000000   0.000000000000   0.000000000000
				   0.000000000000   0.000000000000   0.000000000000
				   0.000000000000   0.000000000000   0.000000000000
				   0.000000000000   0.000000000000   0.000000000000
				   -0.000065199840   -0.000067687877   0.000000000000
				   -0.000136057051   -0.000041595367   0.000000000000
				   -0.000224344663   -0.000028522939   0.000000000000
				   -0.000331767224   -0.000007092758   0.000000000000
				   -0.000460625862   0.000011473071   0.000000000000
				   -0.000615893015   0.000027293662   0.000000000000
				   -0.000794985825   0.000039583231   0.000000000000
				   -0.000996535161   0.000048659272   0.000000000000
				   -0.001216659016   0.000055529030   0.000000000000
				   -0.001453824276   0.000060218889   0.000000000000
				   -0.001705531562   0.000063180915   0.000000000000
				   -0.001972164329   0.000064880081   0.000000000000
				   -0.002252074294   0.000065819217   0.000000000000
				   -0.002547037805   0.000065992386   0.000000000000
				   -0.002853487009   0.000065213864   0.000000000000
				   -0.003165849618   0.000063174389   0.000000000000
				   -0.003477019285   0.000059370831   0.000000000000
				   -0.003773439370   0.000053317381   0.000000000000
				   -0.004035069934   0.000043478729   0.000000000000
				   -0.004233309713   0.000026431502   0.000000000000
				   -0.004332792453   0.000005477047   0.000000000000
				   -0.004320548506   -0.000014149559   0.000000000000
				   -0.004205734160   -0.000033421827   0.000000000000
				   -0.004004771113   -0.000051458392   0.000000000000
				   -0.003736284294   -0.000067074790   0.000000000000
				   -0.003417803801   -0.000080048865   0.000000000000
				   -0.003067449442   -0.000089887174   0.000000000000
				   -0.002701417882   -0.000096291206   0.000000000000
				   -0.002332548775   -0.000099035696   0.000000000000
				   -0.001969087392   -0.000098289257   0.000000000000
				   -0.001625156071   -0.000093446789   0.000000000000
				   -0.001305374740   -0.000084421354   0.000000000000
				   -0.001017354833   -0.000071401492   0.000000000000
				   -0.000766656669   -0.000053963281   0.000000000000
				   -0.000557454644   -0.000032054178   0.000000000000
				   -0.000389697510   -0.000005474750   0.000000000000
				   -0.000258581506   0.000022620255   0.000000000000
				   -0.000153367810   0.000045142374   0.000000000000
				   -0.000072277527   0.000073662256   0.000000000000
				   0.000000000000   0.000000000000   0.000000000000
				   0.000000000000   0.000000000000   0.000000000000
				   -0.000060267512   -0.000108318660   0.000000000000
				   -0.000138164983   -0.000029345139   0.000000000000
				   -0.000263684467   0.000017945914   0.000000000000
				   -0.000440889503   0.000074436356   0.000000000000
				   -0.000670665982   0.000125702490   0.000000000000
				   -0.000957461379   0.000169181022   0.000000000000
				   -0.001294423709   0.000201919723   0.000000000000
				   -0.001679813157   0.000224617086   0.000000000000
				   -0.002105653697   0.000239686261   0.000000000000
				   -0.002568358741   0.000248481494   0.000000000000
				   -0.003061489440   0.000252617541   0.000000000000
				   -0.003584012670   0.000253406558   0.000000000000
				   -0.004131114827   0.000251737460   0.000000000000
				   -0.004704929587   0.000247495860   0.000000000000
				   -0.005296985022   0.000239896092   0.000000000000
				   -0.005896246259   0.000227674354   0.000000000000
				   -0.006488669978   0.000209080965   0.000000000000
				   -0.007047699077   0.000182155788   0.000000000000
				   -0.007535578060   0.000143155601   0.000000000000
				   -0.007897933204   0.000085790163   0.000000000000
				   -0.008066636619   0.000017133584   0.000000000000
				   -0.008020959611   -0.000051107688   0.000000000000
				   -0.007782943442   -0.000118699973   0.000000000000
				   -0.007384366147   -0.000182426020   0.000000000000
				   -0.006860838787   -0.000238944366   0.000000000000
				   -0.006245361497   -0.000287045365   0.000000000000
				   -0.005571467389   -0.000325248028   0.000000000000
				   -0.004869579605   -0.000352850704   0.000000000000
				   -0.004164973846   -0.000368991728   0.000000000000
				   -0.003472881993   -0.000373730944   0.000000000000
				   -0.002820191323   -0.000365708929   0.000000000000
				   -0.002217229533   -0.000344018006   0.000000000000
				   -0.001677764778   -0.000308264662   0.000000000000
				   -0.001212687339   -0.000257807528   0.000000000000
				   -0.000830786561   -0.000193576049   0.000000000000
				   -0.000532938631   -0.000117606730   0.000000000000
				   -0.000313093332   -0.000038280812   0.000000000000
				   -0.000163345773   0.000034479396   0.000000000000
				   -0.000070616914   0.000124243308   0.000000000000
				   0.000000000000   0.000000000000   0.000000000000
				   0.000000000000   0.000000000000   0.000000000000
				   -0.000073076705   -0.000112362520   0.000000000000
				   -0.000186748109   0.000031167705   0.000000000000
				   -0.000364047030   0.000135472784   0.000000000000
				   -0.000613494858   0.000246961409   0.000000000000
				   -0.000937201479   0.000347601521   0.000000000000
				   -0.001340644342   0.000432522207   0.000000000000
				   -0.001815145817   0.000496162932   0.000000000000
				   -0.002359532076   0.000539384966   0.000000000000
				   -0.002963822737   0.000566253344   0.000000000000
				   -0.003623078863   0.000580002780   0.000000000000
				   -0.004327722777   0.000584064757   0.000000000000
				   -0.005075001342   0.000581094563   0.000000000000
				   -0.005856829993   0.000572679704   0.000000000000
				   -0.006674879787   0.000558363411   0.000000000000
				   -0.007516020800   0.000536579153   0.000000000000
				   -0.008363646968   0.000504439855   0.000000000000
				   -0.009197164175   0.000458181802   0.000000000000
				   -0.009978499609   0.000393477365   0.000000000000
				   -0.010655193912   0.000303501140   0.000000000000
				   -0.011151783831   0.000179217998   0.000000000000
				   -0.011372450858   0.000032497955   0.000000000000
				   -0.011291320127   -0.000116508235   0.000000000000
				   -0.010942058482   -0.000264255882   0.000000000000
				   -0.010369996900   -0.000403710858   0.000000000000
				   -0.009625615159   -0.000528325498   0.000000000000
				   -0.008754883877   -0.000635268178   0.000000000000
				   -0.007804501073   -0.000721583959   0.000000000000
				   -0.006816781672   -0.000785818652   0.000000000000
				   -0.005827536668   -0.000826193168   0.000000000000
				   -0.004857335693   -0.000842314641   0.000000000000
				   -0.003944455134   -0.000831449324   0.000000000000
				   -0.003102751748   -0.000791928311   0.000000000000
				   -0.002350707017   -0.000722574486   0.000000000000
				   -0.001702131163   -0.000622833761   0.000000000000
				   -0.001167932578   -0.000495743521   0.000000000000
				   -0.000747845971   -0.000347829881   0.000000000000
				   -0.000433574645   -0.000192280477   0.000000000000
				   -0.000218866128   -0.000042202536   0.000000000000
				   -0.000083127342   0.000128454974   0.000000000000
				   0.000000000000   0.000000000000   0.000000000000
				   0.000000000000   0.000000000000   0.000000000000
				   -0.000077178379   -0.000068187424   0.000000000000
				   -0.000225173356   0.000155037480   0.000000000000
				   -0.000454324533   0.000333987160   0.000000000000
				   -0.000772297619   0.000516890737   0.000000000000
				   -0.001181197243   0.000681055924   0.000000000000
				   -0.001687740294   0.000819378649   0.000000000000
				   -0.002281654174   0.000923297872   0.000000000000
				   -0.002963055835   0.000993821046   0.000000000000
				   -0.003720734944   0.001036417959   0.000000000000
				   -0.004549312705   0.001056431633   0.000000000000
				   -0.005436657327   0.001059533209   0.000000000000
				   -0.006378500060   0.001050088655   0.000000000000
				   -0.007363384529   0.001030582089   0.000000000000
				   -0.008392178209   0.001000155541   0.000000000000
				   -0.009447021790   0.000956146047   0.000000000000
				   -0.010506053861   0.000893655727   0.000000000000
				   -0.011542647961   0.000806212876   0.000000000000
				   -0.012508496018   0.000686270254   0.000000000000
				   -0.013338833566   0.000523198905   0.000000000000
				   -0.013940758429   0.000304919561   0.000000000000
				   -0.014194799548   0.000049078314   0.000000000000
				   -0.014072639118   -0.000213065706   0.000000000000
				   -0.013619933594   -0.000472431337   0.000000000000
				   -0.012893840636   -0.000717034743   0.000000000000
				   -0.011957677307   -0.000936200014   0.000000000000
				   -0.010868465879   -0.001124870769   0.000000000000
				   -0.009683826273   -0.001278196318   0.000000000000
				   -0.008455938285   -0.001393651998   0.000000000000
				   -0.007229320138   -0.001468250357   0.000000000000
				   -0.006028777583   -0.001500786126   0.000000000000
				   -0.004901244793   -0.001487038619   0.000000000000
				   -0.003863238834   -0.001424522399   0.000000000000
				   -0.002936062826   -0.001311405428   0.000000000000
				   -0.002134907531   -0.001147904184   0.000000000000
				   -0.001471605006   -0.000940272645   0.000000000000
				   -0.000945091707   -0.000700304998   0.000000000000
				   -0.000545321461   -0.000446489266   0.000000000000
				   -0.000265738550   -0.000199838351   0.000000000000
				   -0.000088591968   0.000070031260   0.000000000000
				   0.000000000000   0.000000000000   0.000000000000
				   0.000000000000   0.000000000000   0.000000000000
				   -0.000081086242   0.000025322224   0.000000000000
				   -0.000258019123   0.000349530689   0.000000000000
				   -0.000534630849   0.000621147220   0.000000000000
				   -0.000915705236   0.000890229276   0.000000000000
				   -0.001401794810   0.001129891852   0.000000000000
				   -0.001999970242   0.001331397641   0.000000000000
				   -0.002698058356   0.001483297741   0.000000000000
				   -0.003497264013   0.001586818078   0.000000000000
				   -0.004385555096   0.001648529142   0.000000000000
				   -0.005357514850   0.001675936350   0.000000000000
				   -0.006399134582   0.001677123866   0.000000000000
				   -0.007504982910   0.001658378260   0.000000000000
				   -0.008660608996   0.001623209577   0.000000000000
				   -0.009865933723   0.001570267631   0.000000000000
				   -0.011098780442   0.001495554278   0.000000000000
				   -0.012332636805   0.001391854135   0.000000000000
				   -0.013535644871   0.001249371718   0.000000000000
				   -0.014650970931   0.001056612214   0.000000000000
				   -0.015603804116   0.000798469273   0.000000000000
				   -0.016286793975   0.000459306396   0.000000000000
				   -0.016560821932   0.000063667683   0.000000000000
				   -0.016396979013   -0.000343107904   0.000000000000
				   -0.015851999456   -0.000744366547   0.000000000000
				   -0.014992889074   -0.001122243061   0.000000000000
				   -0.013893857483   -0.001461065239   0.000000000000
				   -0.012621132061   -0.001752987651   0.000000000000
				   -0.011241301230   -0.001990859741   0.000000000000
				   -0.009814634244   -0.002170787086   0.000000000000
				   -0.008392683622   -0.002288432234   0.000000000000
				   -0.007003384198   -0.002341691514   0.000000000000
				   -0.005700303926   -0.002324893779   0.000000000000
				   -0.004501455454   -0.002234740792   0.000000000000
				   -0.003429798356   -0.002069340119   0.000000000000
				   -0.002501249736   -0.001830449718   0.000000000000
				   -0.001728310037   -0.001528124272   0.000000000000
				   -0.001109955198   -0.001179360620   0.000000000000
				   -0.000635989810   -0.000807090300   0.000000000000
				   -0.000301119553   -0.000439600267   0.000000000000
				   -0.000091699011   -0.000043353249   0.000000000000
				   0.000000000000   0.000000000000   0.000000000000
				   0.000000000000   0.000000000000   0.000000000000
				   -0.000084826823   0.000166148637   0.000000000000
				   -0.000285820986   0.000619629635   0.000000000000
				   -0.000604171684   0.001006845869   0.000000000000
				   -0.001041824715   0.001379326817   0.000000000000
				   -0.001597184104   0.001707413844   0.000000000000
				   -0.002276904458   0.001981890356   0.000000000000
				   -0.003066476847   0.002188872056   0.000000000000
				   -0.003967682969   0.002330323434   0.000000000000
				   -0.004967656876   0.002413909656   0.000000000000
				   -0.006061076339   0.002449340622   0.000000000000
				   -0.007232508456   0.002447164696   0.000000000000
				   -0.008475715313   0.002415759435   0.000000000000
				   -0.009773809760   0.002359691255   0.000000000000
				   -0.011125834023   0.002277021734   0.000000000000
				   -0.012505883022   0.002162177594   0.000000000000
				   -0.013883509498   0.002005308437   0.000000000000
				   -0.015222518014   0.001792715535   0.000000000000
				   -0.016459218693   0.001508281224   0.000000000000
				   -0.017510835640   0.001131614903   0.000000000000
				   -0.018258126538   0.000642773268   0.000000000000
				   -0.018545380109   0.000074535289   0.000000000000
				   -0.018343531996   -0.000510344012   0.000000000000
				   -0.017718785447   -0.001085672878   0.000000000000
				   -0.016746123813   -0.001626685864   0.000000000000
				   -0.015508963199   -0.002111670282   0.000000000000
				   -0.014081367486   -0.002529412285   0.000000000000
				   -0.012537520736   -0.002870034003   0.000000000000
				   -0.010944540340   -0.003128001293   0.000000000000
				   -0.009359823727   -0.003297627234   0.000000000000
				   -0.007813673167   -0.003375918931   0.000000000000
				   -0.006364732120   -0.003355788347   0.000000000000
				   -0.005031894190   -0.003233484764   0.000000000000
				   -0.003839259575   -0.003007641246   0.000000000000
				   -0.002803285781   -0.002681862621   0.000000000000
				   -0.001937432914   -0.002270148633   0.000000000000
				   -0.001241408193   -0.001794255110   0.000000000000
				   -0.000705860899   -0.001280424917   0.000000000000
				   -0.000327064754   -0.000763285140   0.000000000000
				   -0.000093776690   -0.000207653943   0.000000000000
				   0.000000000000   0.000000000000   0.000000000000
				   0.000000000000   0.000000000000   0.000000000000
				   -0.000088056916   0.000349340288   0.000000000000
				   -0.000308545132   0.000960968357   0.000000000000
				   -0.000661897360   0.001486645961   0.000000000000
				   -0.001147907979   0.001979344064   0.000000000000
				   -0.001762813893   0.002407720052   0.000000000000
				   -0.002512504384   0.002763316712   0.000000000000
				   -0.003379874555   0.003030682230   0.000000000000
				   -0.004366678057   0.003213308602   0.000000000000
				   -0.005459163461   0.003320158321   0.000000000000
				   -0.006652039839   0.003363350596   0.000000000000
				   -0.007928808723   0.003355922870   0.000000000000
				   -0.009282769791   0.003308352113   0.000000000000
				   -0.010695311311   0.003226239987   0.000000000000
				   -0.012164912142   0.003106966332   0.000000000000
				   -0.013662807944   0.002943207483   0.000000000000
				   -0.015155574819   0.002722174254   0.000000000000
				   -0.016603827316   0.002425773260   0.000000000000
				   -0.017938767665   0.002032739998   0.000000000000
				   -0.019071693165   0.001516596078   0.000000000000
				   -0.019873967828   0.000852192648   0.000000000000
				   -0.020175411641   0.000081671093   0.000000000000
				   -0.019945563584   -0.000711777321   0.000000000000
				   -0.019257777327   -0.001490706533   0.000000000000
				   -0.018192990080   -0.002222334874   0.000000000000
				   -0.016842160289   -0.002877823655   0.000000000000
				   -0.015286132240   -0.003441996200   0.000000000000
				   -0.013605743694   -0.003901830538   0.000000000000
				   -0.011874182674   -0.004249977093   0.000000000000
				   -0.010153902543   -0.004479457972   0.000000000000
				   -0.008477161077   -0.004586544374   0.000000000000
				   -0.006906702068   -0.004562992147   0.000000000000
				   -0.005462140744   -0.004405011800   0.000000000000
				   -0.004168497454   -0.004111918284   0.000000000000
				   -0.003042861663   -0.003689110196   0.000000000000
				   -0.002100022330   -0.003154322002   0.000000000000
				   -0.001340701854   -0.002533442608   0.000000000000
				   -0.000756444217   -0.001855286805   0.000000000000
				   -0.000344519661   -0.001160375596   0.000000000000
				   -0.000094691763   -0.000414570109   0.000000000000
				   0.000000000000   0.000000000000   0.000000000000
				   0.000000000000   0.000000000000   0.000000000000
				   -0.000091348273   0.000575599302   0.000000000000
				   -0.000327617120   0.001376526100   0.000000000000
				   -0.000709947612   0.002066557955   0.000000000000
				   -0.001236492823   0.002698754895   0.000000000000
				   -0.001901651123   0.003241138324   0.000000000000
				   -0.002710484468   0.003687100992   0.000000000000
				   -0.003643331466   0.004020547421   0.000000000000
				   -0.004701594989   0.004247371115   0.000000000000
				   -0.005870465950   0.004378304961   0.000000000000
				   -0.007144567677   0.004428336721   0.000000000000
				   -0.008506640248   0.004413167818   0.000000000000
				   -0.009949827523   0.004345422893   0.000000000000
				   -0.011454432707   0.004231747750   0.000000000000
				   -0.013018859887   0.004068718188   0.000000000000
				   -0.014612461037   0.003847048431   0.000000000000
				   -0.016199896324   0.003550647340   0.000000000000
				   -0.017739784165   0.003156514701   0.000000000000
				   -0.019159831214   0.002637617681   0.000000000000
				   -0.020367100259   0.001960405580   0.000000000000
				   -0.021225452071   0.001093271762   0.000000000000
				   -0.021550744280   0.000088604068   0.000000000000
				   -0.021308274546   -0.000946859835   0.000000000000
				   -0.020575768862   -0.001962479770   0.000000000000
				   -0.019438159116   -0.002915924511   0.000000000000
				   -0.017992661580   -0.003769767970   0.000000000000
				   -0.016326471114   -0.004503997481   0.000000000000
				   -0.014526956407   -0.005101867989   0.000000000000
				   -0.012673381673   -0.005553951710   0.000000000000
				   -0.010833222664   -0.005852102948   0.000000000000
				   -0.009040896508   -0.005992184987   0.000000000000
				   -0.007363038128   -0.005965026005   0.000000000000
				   -0.005820092720   -0.005767052248   0.000000000000
				   -0.004438091626   -0.005398299952   0.000000000000
				   -0.003235026980   -0.004865901557   0.000000000000
				   -0.002227114748   -0.004191145285   0.000000000000
				   -0.001415823232   -0.003403640965   0.000000000000
				   -0.000793028387   -0.002534466074   0.000000000000
				   -0.000356294388   -0.001630684675   0.000000000000
				   -0.000095170685   -0.000661783704   0.000000000000
				   0.000000000000   0.000000000000   0.000000000000
				   0.000000000000   0.000000000000   0.000000000000
				   -0.000093573508   0.000842290793   0.000000000000
				   -0.000341775329   0.001863350344   0.000000000000
				   -0.000746877806   0.002743210106   0.000000000000
				   -0.001305948522   0.003534391579   0.000000000000
				   -0.002011938735   0.004204806771   0.000000000000
				   -0.002869167707   0.004750503140   0.000000000000
				   -0.003855770990   0.005155451011   0.000000000000
				   -0.004972669340   0.005428979132   0.000000000000
				   -0.006203881159   0.005584288719   0.000000000000
				   -0.007543872219   0.005639754890   0.000000000000
				   -0.008974832597   0.005614121804   0.000000000000
				   -0.010490047060   0.005522314548   0.000000000000
				   -0.012069324452   0.005372027254   0.000000000000
				   -0.013711582795   0.005158877971   0.000000000000
				   -0.015385323355   0.004871410035   0.000000000000
				   -0.017054428802   0.004489905682   0.000000000000
				   -0.018676797761   0.003985931682   0.000000000000
				   -0.020178167663   0.003325956594   0.000000000000
				   -0.021462813944   0.002468200731   0.000000000000
				   -0.022388425990   0.001372961781   0.000000000000
				   -0.022755807096   0.000103018973   0.000000000000
				   -0.022521568105   -0.001208545733   0.000000000000
				   -0.021764581633   -0.002495741239   0.000000000000
				   -0.020571793557   -0.003704732823   0.000000000000
				   -0.019045681891   -0.004787494742   0.000000000000
				   -0.017279999637   -0.005717857527   0.000000000000
				   -0.015369334891   -0.006474417539   0.000000000000
				   -0.013399923818   -0.007045319262   0.000000000000
				   -0.011445094611   -0.007421439585   0.000000000000
				   -0.009542195672   -0.007598615619   0.000000000000
				   -0.007762208125   -0.007566989564   0.000000000000
				   -0.006126746432   -0.007323504468   0.000000000000
				   -0.004663165521   -0.006869050675   0.000000000000
				   -0.003390525092   -0.006212459107   0.000000000000
				   -0.002326128003   -0.005378513770   0.000000000000
				   -0.001471530868   -0.004400566684   0.000000000000
				   -0.000818281143   -0.003312359505   0.000000000000
				   -0.000363393247   -0.002168462133   0.000000000000
				   -0.000095100480   -0.000944911911   0.000000000000
				   0.000000000000   0.000000000000   0.000000000000
				   0.000000000000   0.000000000000   0.000000000000
				   -0.000095568716   0.001148884770   0.000000000000
				   -0.000352694715   0.002421866634   0.000000000000
				   -0.000775441170   0.003518524527   0.000000000000
				   -0.001360264824   0.004489759179   0.000000000000
				   -0.002099072444   0.005303854526   0.000000000000
				   -0.002995673155   0.005960059847   0.000000000000
				   -0.004026393499   0.006442925192   0.000000000000
				   -0.005191700183   0.006766214928   0.000000000000
				   -0.006474582439   0.006946375974   0.000000000000
				   -0.007869321698   0.007005922107   0.000000000000
				   -0.009357770642   0.006967183028   0.000000000000
				   -0.010933632750   0.006847698573   0.000000000000
				   -0.012576778463   0.006656291683   0.000000000000
				   -0.014287257605   0.006387484629   0.000000000000
				   -0.016033733360   0.006027408776   0.000000000000
				   -0.017780459507   0.005552357672   0.000000000000
				   -0.019485942551   0.004927836363   0.000000000000
				   -0.021075363828   0.004112880030   0.000000000000
				   -0.022451444009   0.003055952929   0.000000000000
				   -0.023466508582   0.001706919646   0.000000000000
				   -0.023903480283   0.000138128302   0.000000000000
				   -0.023704049840   -0.001488374079   0.000000000000
				   -0.022944371435   -0.003088598704   0.000000000000
				   -0.021711278051   -0.004594454907   0.000000000000
				   -0.020111824049   -0.005944275950   0.000000000000
				   -0.018247294596   -0.007103541930   0.000000000000
				   -0.016221252634   -0.008044597192   0.000000000000
				   -0.014129033094   -0.008752566540   0.000000000000
				   -0.012051717669   -0.009217523077   0.000000000000
				   -0.010031039938   -0.009435845029   0.000000000000
				   -0.008143464189   -0.009397377757   0.000000000000
				   -0.006412306296   -0.009100069298   0.000000000000
				   -0.004866572401   -0.008545981394   0.000000000000
				   -0.003526223756   -0.007745826020   0.000000000000
				   -0.002408967972   -0.006728310459   0.000000000000
				   -0.001515733401   -0.005531309275   0.000000000000
				   -0.000836904933   -0.004192112223   0.000000000000
				   -0.000367952508   -0.002774139268   0.000000000000
				   -0.000095036784   -0.001262677674   0.000000000000
				   0.000000000000   0.000000000000   0.000000000000
				   0.000000000000   0.000000000000   0.000000000000
				   -0.000097628176   0.001492576865   0.000000000000
				   -0.000361530089   0.003048575552   0.000000000000
				   -0.000798092422   0.004388514679   0.000000000000
				   -0.001403549429   0.005560935645   0.000000000000
				   -0.002169127014   0.006534735277   0.000000000000
				   -0.003098408980   0.007312832091   0.000000000000
				   -0.004166295153   0.007880675067   0.000000000000
				   -0.005372943339   0.008257300355   0.000000000000
				   -0.006700505537   0.008463224061   0.000000000000
				   -0.008143184849   0.008525942143   0.000000000000
				   -0.009682726563   0.008472061696   0.000000000000
				   -0.011313549911   0.008322207344   0.000000000000
				   -0.013016112073   0.008086513535   0.000000000000
				   -0.014792229798   0.007758358944   0.000000000000
				   -0.016611673175   0.007321203553   0.000000000000
				   -0.018440203436   0.006746944172   0.000000000000
				   -0.020238293178   0.005994362160   0.000000000000
				   -0.021931965916   0.005013882782   0.000000000000
				   -0.023423572295   0.003742249122   0.000000000000
				   -0.024560624922   0.002115715583   0.000000000000
				   -0.025103853089   0.000213804526   0.000000000000
				   -0.024971913229   -0.001770564460   0.000000000000
				   -0.024233462691   -0.003732233490   0.000000000000
				   -0.022972567468   -0.005585105283   0.000000000000
				   -0.021300234236   -0.007249379116   0.000000000000
				   -0.019326959614   -0.008678577455   0.000000000000
				   -0.017168320193   -0.009836164412   0.000000000000
				   -0.014932381428   -0.010703199080   0.000000000000
				   -0.012711197956   -0.011269137127   0.000000000000
				   -0.010553087701   -0.011531744953   0.000000000000
				   -0.008541797305   -0.011481354997   0.000000000000
				   -0.006702942268   -0.011117817456   0.000000000000
				   -0.005067352903   -0.010445105848   0.000000000000
				   -0.003655423273   -0.009476586950   0.000000000000
				   -0.002484522542   -0.008246074835   0.000000000000
				   -0.001553993443   -0.006797218142   0.000000000000
				   -0.000851886962   -0.005172027096   0.000000000000
				   -0.000371238031   -0.003444341059   0.000000000000
				   -0.000095254320   -0.001611849449   0.000000000000
				   0.000000000000   0.000000000000   0.000000000000
				   0.000000000000   0.000000000000   0.000000000000
				   -0.000100143906   0.001874121834   0.000000000000
				   -0.000369912557   0.003746050500   0.000000000000
				   -0.000818333929   0.005357854920   0.000000000000
				   -0.001441680303   0.006754653358   0.000000000000
				   -0.002230782807   0.007906170481   0.000000000000
				   -0.003189214861   0.008819444605   0.000000000000
				   -0.004290826580   0.009481016368   0.000000000000
				   -0.005535671254   0.009915987682   0.000000000000
				   -0.006905266637   0.010149755723   0.000000000000
				   -0.008393913181   0.010215744895   0.000000000000
				   -0.009983485672   0.010145667249   0.000000000000
				   -0.011669469688   0.009963851105   0.000000000000
				   -0.013433407404   0.009682082043   0.000000000000
				   -0.015279586357   0.009292663892   0.000000000000
				   -0.017179793762   0.008776163228   0.000000000000
				   -0.019102442692   0.008099636072   0.000000000000
				   -0.021011460652   0.007214350067   0.000000000000
				   -0.022835284935   0.006060599738   0.000000000000
				   -0.024477336567   0.004560826528   0.000000000000
				   -0.025781009293   0.002633228929   0.000000000000
				   -0.026479115580   0.000359813537   0.000000000000
				   -0.026456646072   -0.002034712624   0.000000000000
				   -0.025768221707   -0.004420090118   0.000000000000
				   -0.024491189181   -0.006687002687   0.000000000000
				   -0.022739369624   -0.008730636227   0.000000000000