<VTKFile type="UnstructuredGrid" version="0.1" byte_order="BigEndian">
	<UnstructuredGrid>
		<Piece NumberOfPoints="1681" NumberOfCells="3200">
			<PointData Scalars="scalars" Vectors = "Velocity">
				<DataArray type="Float32" Name="Velocity" NumberOfComponents="3" Format="ascii">
				   0.000000000000   0.000000000000   0.000000000000
				   0.000000000000   0.000000000000   0.000000000000
				   0.000000000000   0.000000000000   0.000000000000
				   0.000000000000   0.000000000000   0.000000000000
				   0.000000000000   0.000000000000   0.000000000000
				   0.000000000000   0.000000000000   0.000000000000
				   0.000000000000   0.000000000000   0.000000000000
				   0.000000000000   0.000000000000   0.000000000000
				   0.000000000000   0.000000000000   0.000000000000
				   0.000000000000   0.000000000000   0.000000000000
				   0.000000000000   0.000000000000   0.000000000000
				   0.000000000000   0.000000000000   0.000000000000
				   0.000000000000   0.000000000000   0.000000000000
				   0.000000000000   0.000000000000   0.000000000000
				   0.000000000000   0.000000000000   0.000000000000
				   0.000000000000   0.000000000000   0.000000000000
				   0.000000000000   0.000000000000   0.000000000000
				   0.000000000000   0.000000000000   0.000000000000
				   0.000000000000   0.000000000000   0.000000000000
				   0.000000000000   0.000000000000   0.000000000000
				   0.000000000000   0.000000000000   0.000000000000
				   0.000000000000   0.000000000000   0.000000000000
				   0.000000000000   0.000000000000   0.000000000000
				   0.000000000000   0.000000000000   0.000000000000
				   0.000000000000   0.000000000000   0.000000000000
				   0.000000000000   0.000000000000   0.000000000000
				   0.000000000000   0.000000000000   0.000000000000
				   0.000000000000   0.000000000000   0.000000000000
				   0.000000000000   0.000000000000   0.000000000000
				   0.000000000000   0.000000000000   0.000000000000
				   0.000000000000   0.000000000000   0.000000000000
				   0.000000000000   0.000000000000   0.000000000000
				   0.000000000000   0.000000000000   0.000000000000
				   0.000000000000   0.000000000000   0.000000000000
				   0.000000000000   0.000000000000   0.000000000000
				   0.000000000000   0.000000000000   0.000000000000
				   0.000000000000   0.000000000000   0.000000000000
				   0.000000000000   0.000000000000   0.000000000000
				   0.000000000000   0.000000000000   0.000000000000
				   0.000000000000   0.000000000000   0.000000000000
				   0.000000000000   0.000000000000   0.000000000000
				   0.000000000000   0.000000000000   0.000000000000
				   -0.000017714908   -0.000019320279   0.000000000000
				   -0.000045051135   -0.000012079692   0.000000000000
				   -0.000087010141   -0.000004171705   0.000000000000
				   -0.000160956022   0.000005048352   0.000000000000
				   -0.000265761180   0.000012837587   0.000000000000
				   -0.000401416068   0.000019084464   0.000000000000
				   -0.000561037382   0.000023201919   0.000000000000
				   -0.000739659190   0.000025133958   0.000000000000
				   -0.000932257728   0.000024912086   0.000000000000
				   -0.001138820312   0.000023453342   0.000000000000
				   -0.001357431272   0.000021275393   0.000000000000
				   -0.001587640533   0.000018252708   0.000000000000
				   -0.001826927996   0.000014432537   0.000000000000
				   -0.002074652495   0.000009583209   0.000000000000
				   -0.002325971723   0.000003550864   0.000000000000
				   -0.002575702646   -0.000004344303   0.000000000000
				   -0.002818224764   -0.000014831313   0.000000000000
				   -0.003043264038   -0.000028100429   0.000000000000
				   -0.003237730821   -0.000045259395   0.000000000000
				   -0.003383581370   -0.000068019347   0.000000000000
				   -0.003453428040   -0.000090839648   0.000000000000
				   -0.003434476551   -0.000109089347   0.000000000000
				   -0.003336774194   -0.000125477529   0.000000000000
				   -0.003175561072   -0.000140209710   0.000000000000
				   -0.002963884757   -0.000152703859   0.000000000000
				   -0.002714685433   -0.000162743750   0.000000000000
				   -0.002440621501   -0.000169814069   0.000000000000
				   -0.002151266662   -0.000174374210   0.000000000000
				   -0.001853440929   -0.000177314979   0.000000000000
				   -0.001551321906   -0.000179321761   0.000000000000
				   -0.001255514768   -0.000179459608   0.000000000000
				   -0.000973555409   -0.000179025058   0.000000000000
				   -0.000716587944   -0.000177543252   0.000000000000
				   -0.000488710305   -0.000172248444   0.000000000000
				   -0.000290723050   -0.000159669289   0.000000000000
				   -0.000128997845   -0.000139002027   0.000000000000
				   -0.000014822201   -0.000110239538   0.000000000000
				   0.000040875364   -0.000073019465   0.000000000000
				   0.000033335540   -0.000036266273   0.000000000000
				   0.000000000000   0.000000000000   0.000000000000
				   0.000000000000   0.000000000000   0.000000000000
				   -0.000030317341   -0.000016667295   0.000000000000
				   -0.000093119967   0.000011249268   0.000000000000
				   -0.000190050647   0.000047808449   0.000000000000
				   -0.000338835757   0.000085271135   0.000000000000
				   -0.000539646019   0.000116286637   0.000000000000
				   -0.000793371591   0.000139247701   0.000000000000
				   -0.001089702445   0.000152853642   0.000000000000
				   -0.001423067994   0.000158347053   0.000000000000
				   -0.001785002674   0.000157069101   0.000000000000
				   -0.002173831057   0.000151510210   0.000000000000
				   -0.002584965770   0.000143217050   0.000000000000
				   -0.003016887386   0.000132523674   0.000000000000
				   -0.003464632106   0.000119377560   0.000000000000
				   -0.003927393357   0.000103135073   0.000000000000
				   -0.004395812526   0.000082846986   0.000000000000
				   -0.004859392704   0.000057197614   0.000000000000
				   -0.005307025239   0.000024817736   0.000000000000
				   -0.005719498170   -0.000015696135   0.000000000000
				   -0.006072511912   -0.000066407927   0.000000000000
				   -0.006332444719   -0.000128212372   0.000000000000
				   -0.006449403086   -0.000190697677   0.000000000000
				   -0.006403291294   -0.000246296748   0.000000000000
				   -0.006213672299   -0.000298865394   0.000000000000
				   -0.005908189127   -0.000347359252   0.000000000000
				   -0.005511914100   -0.000389935959   0.000000000000
				   -0.005048058155   -0.000426276960   0.000000000000
				   -0.004538776351   -0.000455641465   0.000000000000
				   -0.004002027513   -0.000478330173   0.000000000000
				   -0.003452488272   -0.000495282147   0.000000000000
				   -0.002897963060   -0.000507341665   0.000000000000
				   -0.002357377459   -0.000513056161   0.000000000000
				   -0.001841378221   -0.000512103315   0.000000000000
				   -0.001368206512   -0.000502276583   0.000000000000
				   -0.000949797416   -0.000479256033   0.000000000000
				   -0.000594338573   -0.000438374136   0.000000000000
				   -0.000310923898   -0.000377692085   0.000000000000
				   -0.000108473887   -0.000296692268   0.000000000000
				   0.000008225503   -0.000195307935   0.000000000000
				   0.000034424890   -0.000100208555   0.000000000000
				   0.000000000000   0.000000000000   0.000000000000
				   0.000000000000   0.000000000000   0.000000000000
				   -0.000047148254   0.000022618797   0.000000000000
				   -0.000146339631   0.000090630930   0.000000000000
				   -0.000297832845   0.000172335620   0.000000000000
				   -0.000517028847   0.000252874795   0.000000000000
				   -0.000804097149   0.000320038194   0.000000000000
				   -0.001161204016   0.000369761941   0.000000000000
				   -0.001575752159   0.000399659831   0.000000000000
				   -0.002042348156   0.000412325671   0.000000000000
				   -0.002549971465   0.000411129699   0.000000000000
				   -0.003095766663   0.000400619036   0.000000000000
				   -0.003672849042   0.000383937190   0.000000000000
				   -0.004278486324   0.000362200535   0.000000000000
				   -0.004904947692   0.000335274330   0.000000000000
				   -0.005550908503   0.000301821156   0.000000000000
				   -0.006202880331   0.000260279480   0.000000000000
				   -0.006845721382   0.000208307023   0.000000000000
				   -0.007463422895   0.000142814793   0.000000000000
				   -0.008028703663   0.000061268055   0.000000000000
				   -0.008507540124   -0.000038625388   0.000000000000
				   -0.008853474445   -0.000158030890   0.000000000000
				   -0.008998853305   -0.000282443696   0.000000000000
				   -0.008920122629   -0.000398529260   0.000000000000
				   -0.008645688237   -0.000508353203   0.000000000000
				   -0.008213397651   -0.000609892253   0.000000000000
				   -0.007658697436   -0.000700861057   0.000000000000
				   -0.007013036747   -0.000780324639   0.000000000000
				   -0.006306345572   -0.000846699639   0.000000000000
				   -0.005563500468   -0.000900110065   0.000000000000
				   -0.004805278439   -0.000941375193   0.000000000000
				   -0.004042252285   -0.000971306014   0.000000000000
				   -0.003301017324   -0.000987171828   0.000000000000
				   -0.002595444771   -0.000986682088   0.000000000000
				   -0.001947984541   -0.000964875452   0.000000000000
				   -0.001373985654   -0.000914950947   0.000000000000
				   -0.000886031240   -0.000830794567   0.000000000000
				   -0.000495062939   -0.000709872210   0.000000000000
				   -0.000208794268   -0.000554120651   0.000000000000
				   -0.000028675307   -0.000367960872   0.000000000000
				   0.000033259506   -0.000185633956   0.000000000000
				   0.000000000000   0.000000000000   0.000000000000
				   0.000000000000   0.000000000000   0.000000000000
				   -0.000061251494   0.000092006282   0.000000000000
				   -0.000193557603   0.000223037689   0.000000000000
				   -0.000395156773   0.000366759996   0.000000000000
				   -0.000677978072   0.000503605898   0.000000000000
				   -0.001040849863   0.000617667634   0.000000000000
				   -0.001486386373   0.000702594698   0.000000000000
				   -0.002000279476   0.000754606777   0.000000000000
				   -0.002577675261   0.000777759102   0.000000000000
				   -0.003205801124   0.000777750639   0.000000000000
				   -0.003881085214   0.000761544324   0.000000000000
				   -0.004594808113   0.000734248138   0.000000000000
				   -0.005343193883   0.000697953099   0.000000000000
				   -0.006115975439   0.000652659465   0.000000000000
				   -0.006911148247   0.000596200999   0.000000000000
				   -0.007711688520   0.000525852942   0.000000000000
				   -0.008498497940   0.000437837813   0.000000000000
				   -0.009251043085   0.000328055521   0.000000000000
				   -0.009935271294   0.000192978417   0.000000000000
				   -0.010509824811   0.000027377348   0.000000000000
				   -0.010917798243   -0.000171556470   0.000000000000
				   -0.011077158544   -0.000381211007   0.000000000000
				   -0.010964042851   -0.000579369768   0.000000000000
				   -0.010615533420   -0.000767843763   0.000000000000
				   -0.010077151619   -0.000943700135   0.000000000000
				   -0.009392192252   -0.001102090998   0.000000000000
				   -0.008598537564   -0.001241122296   0.000000000000
				   -0.007732474104   -0.001358951231   0.000000000000
				   -0.006824563400   -0.001455473969   0.000000000000
				   -0.005900453714   -0.001531110174   0.000000000000
				   -0.004972730528   -0.001586453748   0.000000000000
				   -0.004073908032   -0.001616883141   0.000000000000
				   -0.003220264119   -0.001617580298   0.000000000000
				   -0.002437093541   -0.001580345380   0.000000000000
				   -0.001741499198   -0.001495437611   0.000000000000
				   -0.001148116657   -0.001355473758   0.000000000000
				   -0.000667934336   -0.001157969882   0.000000000000
				   -0.000307908115   -0.000906893866   0.000000000000
				   -0.000069456423   -0.000611295248   0.000000000000
				   0.000029102336   -0.000306307672   0.000000000000
				   0.000000000000   0.000000000000   0.000000000000
				   0.000000000000   0.000000000000   0.000000000000
				   -0.000072419966   0.000192479749   0.000000000000
				   -0.000231913110   0.000410099231   0.000000000000
				   -0.000475572020   0.000632547310   0.000000000000
				   -0.000812001585   0.000837647098   0.000000000000
				   -0.001238091996   0.001007362430   0.000000000000
				   -0.001756261138   0.001133895590   0.000000000000
				   -0.002350480914   0.001212250533   0.000000000000
				   -0.003016285410   0.001248195158   0.000000000000
				   -0.003739795300   0.001249870596   0.000000000000
				   -0.004517125077   0.001226858706   0.000000000000
				   -0.005338224619   0.001186458552   0.000000000000
				   -0.006198487840   0.001131913969   0.000000000000
				   -0.007085583573   0.001063354967   0.000000000000
				   -0.007996936074   0.000977437583   0.000000000000
				   -0.008912503347   0.000870491923   0.000000000000
				   -0.009809800716   0.000737910472   0.000000000000
				   -0.010664892867   0.000573419892   0.000000000000
				   -0.011438806266   0.000370413339   0.000000000000
				   -0.012084132738   0.000121855876   0.000000000000
				   -0.012535099165   -0.000174236258   0.000000000000
				   -0.012699435360   -0.000488531053   0.000000000000
				   -0.012555361189   -0.000791037019   0.000000000000
				   -0.012146585107   -0.001079958927   0.000000000000
				   -0.011523672652   -0.001348906440   0.000000000000
				   -0.010736360632   -0.001591337210   0.000000000000
				   -0.009827585076   -0.001805089877   0.000000000000
				   -0.008838248176   -0.001987458749   0.000000000000
				   -0.007803260409   -0.002137856817   0.000000000000
				   -0.006752164749   -0.002256388877   0.000000000000
				   -0.005699008532   -0.002343181164   0.000000000000
				   -0.004680610753   -0.002391231150   0.000000000000
				   -0.003714709896   -0.002392849820   0.000000000000
				   -0.002828077095   -0.002336388159   0.000000000000
				   -0.002038613807   -0.002209228585   0.000000000000
				   -0.001362198198   -0.002003038689   0.000000000000
				   -0.000809960595   -0.001715873540   0.000000000000
				   -0.000389100918   -0.001352646415   0.000000000000
				   -0.000103582183   -0.000926037370   0.000000000000
				   0.000024396657   -0.000467420388   0.000000000000
				   0.000000000000   0.000000000000   0.000000000000
				   0.000000000000   0.000000000000   0.000000000000
				   -0.000080600529   0.000322364628   0.000000000000
				   -0.000260832999   0.000651867671   0.000000000000
				   -0.000537605336   0.000971593771   0.000000000000
				   -0.000916856477   0.001258219845   0.000000000000
				   -0.001393588879   0.001492679578   0.000000000000
				   -0.001969648624   0.001666844602   0.000000000000
				   -0.002627050410   0.001775189751   0.000000000000
				   -0.003361457289   0.001825665468   0.000000000000
				   -0.004158283520   0.001829042659   0.000000000000
				   -0.005013564532   0.001797776594   0.000000000000
				   -0.005916359990   0.001741564256   0.000000000000
				   -0.006861570087   0.001664800977   0.000000000000
				   -0.007835363982   0.001567732531   0.000000000000
				   -0.008834615857   0.001446088313   0.000000000000
				   -0.009836896704   0.001295207290   0.000000000000
				   -0.010817466949   0.001108376742   0.000000000000
				   -0.011749836815   0.000876663247   0.000000000000
				   -0.012590801963   0.000592502876   0.000000000000
				   -0.013288518524   0.000247158087   0.000000000000
				   -0.013771029701   -0.000164687176   0.000000000000
				   -0.013938110179   -0.000606774905   0.000000000000
				   -0.013769570215   -0.001035627207   0.000000000000
				   -0.013314480998   -0.001444566935   0.000000000000
				   -0.012627315783   -0.001825707673   0.000000000000
				   -0.011762415466   -0.002170205795   0.000000000000
				   -0.010766172536   -0.002474357900   0.000000000000
				   -0.009683091519   -0.002734556434   0.000000000000
				   -0.008551619737   -0.002949949288   0.000000000000
				   -0.007404375295   -0.003120207830   0.000000000000
				   -0.006256428962   -0.003244822613   0.000000000000
				   -0.005147682093   -0.003314130242   0.000000000000
				   -0.004096816508   -0.003317423728   0.000000000000
				   -0.003131391951   -0.003239347244   0.000000000000
				   -0.002269747976   -0.003064223486   0.000000000000
				   -0.001528793354   -0.002782566675   0.000000000000
				   -0.000920079340   -0.002392589863   0.000000000000
				   -0.000451405218   -0.001898819346   0.000000000000
				   -0.000130092343   -0.001317009426   0.000000000000
				   0.000018591630   -0.000674800258   0.000000000000
				   0.000000000000   0.000000000000   0.000000000000
				   0.000000000000   0.000000000000   0.000000000000
				   -0.000085809467   0.000477206964   0.000000000000
				   -0.000280516049   0.000940714234   0.000000000000
				   -0.000581135841   0.001374625223   0.000000000000
				   -0.000991953898   0.001754782242   0.000000000000
				   -0.001506508675   0.002061884321   0.000000000000
				   -0.002125877770   0.002288648361   0.000000000000
				   -0.002830187742   0.002429745892   0.000000000000
				   -0.003615062878   0.002495843324   0.000000000000
				   -0.004465380097   0.002500686322   0.000000000000
				   -0.005377162186   0.002459876324   0.000000000000
				   -0.006338972570   0.002385589549   0.000000000000
				   -0.007345516422   0.002283416189   0.000000000000
				   -0.008381941316   0.002153860275   0.000000000000
				   -0.009444877474   0.001991418794   0.000000000000
				   -0.010510428977   0.001789802641   0.000000000000
				   -0.011552186320   0.001540780704   0.000000000000
				   -0.012541604895   0.001233885054   0.000000000000
				   -0.013432981976   0.000858838778   0.000000000000
				   -0.014171885807   0.000402612918   0.000000000000
				   -0.014681021925   -0.000141588172   0.000000000000
				   -0.014853098087   -0.000727705859   0.000000000000
				   -0.014669666788   -0.001299869605   0.000000000000
				   -0.014183978660   -0.001847304541   0.000000000000
				   -0.013452147993   -0.002358239802   0.000000000000
				   -0.012531489131   -0.002820246312   0.000000000000
				   -0.011471238392   -0.003228557396   0.000000000000
				   -0.010318745039   -0.003578671045   0.000000000000
				   -0.009115235716   -0.003869169154   0.000000000000
				   -0.007895881526   -0.004099233359   0.000000000000
				   -0.006676572500   -0.004267732183   0.000000000000
				   -0.005499450980   -0.004362168950   0.000000000000
				   -0.004383904784   -0.004368784762   0.000000000000
				   -0.003358145063   -0.004268255258   0.000000000000
				   -0.002441161252   -0.004041430631   0.000000000000
				   -0.001650954655   -0.003677014213   0.000000000000
				   -0.000999690300   -0.003172625097   0.000000000000
				   -0.000495729937   -0.002531422042   0.000000000000
				   -0.000149415331   -0.001771759885   0.000000000000
				   0.000012384684   -0.000920724837   0.000000000000
				   0.000000000000   0.000000000000   0.000000000000
				   0.000000000000   0.000000000000   0.000000000000
				   -0.000089545506   0.000657541998   0.000000000000
				   -0.000293938147   0.001276587022   0.000000000000
				   -0.000611069744   0.001842372546   0.000000000000
				   -0.001044337149   0.002329406546   0.000000000000
				   -0.001586367852   0.002718402394   0.000000000000
				   -0.002237588935   0.003003699662   0.000000000000
				   -0.002976521596   0.003180708624   0.000000000000
				   -0.003798601276   0.003263562860   0.000000000000
				   -0.004688204060   0.003269540146   0.000000000000
				   -0.005641350759   0.003217781340   0.000000000000
				   -0.006646337113   0.003123161653   0.000000000000
				   -0.007697874730   0.002992542722   0.000000000000
				   -0.008780608282   0.002826473318   0.000000000000
				   -0.009891251765   0.002618035960   0.000000000000
				   -0.011004875274   0.002359811344   0.000000000000
				   -0.012094048439   0.002042008950   0.000000000000
				   -0.013129408107   0.001650847119   0.000000000000
				   -0.014063627998   0.001172939627   0.000000000000
				   -0.014839827043   0.000593218960   0.000000000000
				   -0.015376629622   -0.000097342955   0.000000000000
				   -0.015561059287   -0.000845736466   0.000000000000
				   -0.015374623033   -0.001581663693   0.000000000000
				   -0.014872299830   -0.002286797684   0.000000000000
				   -0.014110922797   -0.002945304269   0.000000000000
				   -0.013150220449   -0.003541735584   0.000000000000
				   -0.012041607523   -0.004069699577   0.000000000000
				   -0.010834760872   -0.004523177054   0.000000000000
				   -0.009573496010   -0.004900084910   0.000000000000
				   -0.008295397067   -0.005199069989   0.000000000000
				   -0.007017203135   -0.005418365986   0.000000000000
				   -0.005783077577   -0.005542467528   0.000000000000
				   -0.004613178786   -0.005554426817   0.000000000000
				   -0.003536571354   -0.005430482910   0.000000000000
				   -0.002573344721   -0.005147271947   0.000000000000
				   -0.001742765389   -0.004690860260   0.000000000000
				   -0.001057638992   -0.004057619974   0.000000000000
				   -0.000526626259   -0.003248897058   0.000000000000
				   -0.000162463207   -0.002285307402   0.000000000000
				   0.000007345279   -0.001197559450   0.000000000000
				   0.000000000000   0.000000000000   0.000000000000
				   0.000000000000   0.000000000000   0.000000000000
				   -0.000092716864   0.000860656228   0.000000000000
				   -0.000303790886   0.001654718090   0.000000000000
				   -0.000632402253   0.002369316001   0.000000000000
				   -0.001081664426   0.002976688968   0.000000000000
				   -0.001643851927   0.003457223346   0.000000000000
				   -0.002318999050   0.003807304745   0.000000000000
				   -0.003084338744   0.004023540234   0.000000000000
				   -0.003935040620   0.004124334464   0.000000000000
				   -0.004855016338   0.004131135858   0.000000000000
				   -0.005840270160   0.004067124188   0.000000000000
				   -0.006878946798   0.003950123754   0.000000000000
				   -0.007965965774   0.003788259239   0.000000000000
				   -0.009085797636   0.003582146498   0.000000000000
				   -0.010235385977   0.003323607797   0.000000000000
				   -0.011389388599   0.003003655213   0.000000000000
				   -0.012520171461   0.002610061388   0.000000000000
				   -0.013597859957   0.002126301646   0.000000000000
				   -0.014573749819   0.001536822926   0.000000000000
				   -0.015389646593   0.000822456823   0.000000000000
				   -0.015961290021   -0.000030422477   0.000000000000
				   -0.016168989658   -0.000959527275   0.000000000000
				   -0.015991499560   -0.001877185351   0.000000000000
				   -0.015484623285   -0.002758269117   0.000000000000
				   -0.014705355690   -0.003583036584   0.000000000000
				   -0.013714829362   -0.004331661572   0.000000000000
				   -0.012566333492   -0.004995415030   0.000000000000
				   -0.011311973696   -0.005566464661   0.000000000000
				   -0.009998304427   -0.006041780958   0.000000000000
				   -0.008665476488   -0.006419310651   0.000000000000
				   -0.007331425498   -0.006696724892   0.000000000000
				   -0.006042594025   -0.006855246136   0.000000000000
				   -0.004820207038   -0.006874520570   0.000000000000
				   -0.003694620156   -0.006725866291   0.000000000000
				   -0.002687493602   -0.006380988874   0.000000000000
				   -0.001819524593   -0.005822533986   0.000000000000
				   -0.001104029480   -0.005045093331   0.000000000000
				   -0.000549705238   -0.004048237837   0.000000000000
				   -0.000170903721   -0.002854776275   0.000000000000
				   0.000004921987   -0.001500722328   0.000000000000
				   0.000000000000   0.000000000000   0.000000000000
				   0.000000000000   0.000000000000   0.000000000000
				   -0.000095642845   0.001084813610   0.000000000000
				   -0.000312092738   0.002073798817   0.000000000000
				   -0.000649926770   0.002954956967   0.000000000000
				   -0.001112178592   0.003697327242   0.000000000000
				   -0.001691089868   0.004280349257   0.000000000000
				   -0.002386537482   0.004702633088   0.000000000000
				   -0.003174713793   0.004962281437   0.000000000000
				   -0.004050562501   0.005082734290   0.000000000000
				   -0.004997584668   0.005090295382   0.000000000000
				   -0.006011773661   0.005012761456   0.000000000000
				   -0.007081172386   0.004871249735   0.000000000000
				   -0.008201003673   0.004675337825   0.000000000000
				   -0.009355713436   0.004425772814   0.000000000000
				   -0.010542800197   0.004112751284   0.000000000000
				   -0.011736985561   0.003725416631   0.000000000000
				   -0.012910594238   0.003249535517   0.000000000000
				   -0.014033627446   0.002665681927   0.000000000000
				   -0.015056894427   0.001954435219   0.000000000000
				   -0.015921208705   0.001091785966   0.000000000000
				   -0.016539147648   0.000060410123   0.000000000000
				   -0.016783187632   -0.001067843699   0.000000000000
				   -0.016627288451   -0.002188004818   0.000000000000
				   -0.016126653430   -0.003267371044   0.000000000000
				   -0.015337410848   -0.004280759230   0.000000000000
				   -0.014321684323   -0.005203047661   0.000000000000
				   -0.013134810682   -0.006022618083   0.000000000000
				   -0.011831636948   -0.006729018625   0.000000000000
				   -0.010461996676   -0.007317782628   0.000000000000
				   -0.009069217678   -0.007785954777   0.000000000000
				   -0.007673053729   -0.008130665418   0.000000000000
				   -0.006322922335   -0.008329408869   0.000000000000
				   -0.005041646801   -0.008358114409   0.000000000000
				   -0.003861454144   -0.008182566169   0.000000000000
				   -0.002805997386   -0.007768802237   0.000000000000
				   -0.001897552047   -0.007095472410   0.000000000000
				   -0.001149829549   -0.006155114289   0.000000000000
				   -0.000571423159   -0.004945682457   0.000000000000
				   -0.000177778215   -0.003492748263   0.000000000000
				   0.000004100571   -0.001837926969   0.000000000000
				   0.000000000000   0.000000000000   0.000000000000
				   0.000000000000   0.000000000000   0.000000000000
				   -0.000098540262   0.001329400254   0.000000000000
				   -0.000320312555   0.002533092636   0.000000000000
				   -0.000667266193   0.003598463908   0.000000000000
				   -0.001142342415   0.004490693428   0.000000000000
				   -0.001737853913   0.005187624136   0.000000000000
				   -0.002453642989   0.005690119985   0.000000000000
				   -0.003265010320   0.005997920824   0.000000000000
				   -0.004166764998   0.006140185257   0.000000000000
				   -0.005142044199   0.006148748940   0.000000000000
				   -0.006186844286   0.006056671551   0.000000000000
				   -0.007289083630   0.005888825625   0.000000000000
				   -0.008444335004   0.005656450888   0.000000000000
				   -0.009637179469   0.005360345028   0.000000000000
				   -0.010865908503   0.004988983832   0.000000000000
				   -0.012105441788   0.004529749730   0.000000000000
				   -0.013328420188   0.003965974865   0.000000000000
				   -0.014505335507   0.003274412456   0.000000000000
				   -0.015586620457   0.002431702938   0.000000000000
				   -0.016511976131   0.001408986216   0.000000000000
				   -0.017191206968   0.000183502614   0.000000000000
				   -0.017487645120   -0.001164287108   0.000000000000
				   -0.017367215153   -0.002510365525   0.000000000000
				   -0.016882860914   -0.003813239917   0.000000000000
				   -0.016089283780   -0.005041558011   0.000000000000
				   -0.015049243823   -0.006163603798   0.000000000000
				   -0.013820251647   -0.007163594662   0.000000000000
				   -0.012460524019   -0.008027372452   0.000000000000
				   -0.011024145413   -0.008748349029   0.000000000000
				   -0.009558629258   -0.009322225233   0.000000000000
				   -0.008086434115   -0.009745487356   0.000000000000
				   -0.006661043719   -0.009991310767   0.000000000000
				   -0.005307573086   -0.010031528697   0.000000000000
				   -0.004060812256   -0.009825767165   0.000000000000
				   -0.002946879628   -0.009333780710   0.000000000000
				   -0.001989858965   -0.008529915892   0.000000000000
				   -0.001203784863   -0.007404673798   0.000000000000
				   -0.000596989248   -0.005954606537   0.000000000000
				   -0.000185687801   -0.004208956301   0.000000000000
				   0.000003742838   -0.002215923616   0.000000000000
				   0.000000000000   0.000000000000   0.000000000000
				   0.000000000000   0.000000000000   0.000000000000
				   -0.000101957634   0.001598076585   0.000000000000
				   -0.000329847882   0.003039455376   0.000000000000
				   -0.000687280124   0.004309418003   0.000000000000
				   -0.001177083643   0.005368657887   0.000000000000
				   -0.001791606749   0.006192862236   0.000000000000
				   -0.002530678535   0.006785168112   0.000000000000
				   -0.003368737730   0.007147034142   0.000000000000
				   -0.004300541001   0.007314052641   0.000000000000
				   -0.005308867190   0.007324341608   0.000000000000
				   -0.006389725808   0.007216988032   0.000000000000
				   -0.007530843269   0.007021169436   0.000000000000
				   -0.008728222203   0.006750036105   0.000000000000
				   -0.009966658164   0.006404520472   0.000000000000
				   -0.011245401538   0.005971361536   0.000000000000
				   -0.012539832748   0.005435846850   0.000000000000
				   -0.013823276225   0.004778433669   0.000000000000
				   -0.015066932620   0.003971938780   0.000000000000
				   -0.016221063411   0.002988530492   0.000000000000
				   -0.017224754328   0.001792906703   0.000000000000
				   -0.017985265173   0.000355236800   0.000000000000
				   -0.018354427567   -0.001235656767   0.000000000000
				   -0.018286393056   -0.002835675683   0.000000000000
				   -0.017830203955   -0.004393871377   0.000000000000
				   -0.017038026035   -0.005871260918   0.000000000000
				   -0.015972559179   -0.007227412553   0.000000000000