<VTKFile type="UnstructuredGrid" version="0.1" byte_order="BigEndian">
	<UnstructuredGrid>
		<Piece NumberOfPoints="1681" NumberOfCells="3200">
			<PointData Scalars="scalars" Vectors = "Velocity">
				<DataArray type="Float32" Name="Velocity" NumberOfComponents="3" Format="ascii">
				   0.000000000000   0.000000000000   0.000000000000
				   0.000000000000   0.000000000000   0.000000000000
				   0.000000000000   0.000000000000   0.000000000000
				   0.000000000000   0.000000000000   0.000000000000
				   0.000000000000   0.000000000000   0.000000000000
				   0.000000000000   0.000000000000   0.000000000000
				   0.000000000000   0.000000000000   0.000000000000
				   0.000000000000   0.000000000000   0.000000000000
				   0.000000000000   0.000000000000   0.000000000000
				   0.000000000000   0.000000000000   0.000000000000
				   0.000000000000   0.000000000000   0.000000000000
				   0.000000000000   0.000000000000   0.000000000000
				   0.000000000000   0.000000000000   0.000000000000
				   0.000000000000   0.000000000000   0.000000000000
				   0.000000000000   0.000000000000   0.000000000000
				   0.000000000000   0.000000000000   0.000000000000
				   0.000000000000   0.000000000000   0.000000000000
				   0.000000000000   0.000000000000   0.000000000000
				   0.000000000000   0.000000000000   0.000000000000
				   0.000000000000   0.000000000000   0.000000000000
				   0.000000000000   0.000000000000   0.000000000000
				   0.000000000000   0.000000000000   0.000000000000
				   0.000000000000   0.000000000000   0.000000000000
				   0.000000000000   0.000000000000   0.000000000000
				   0.000000000000   0.000000000000   0.000000000000
				   0.000000000000   0.000000000000   0.000000000000
				   0.000000000000   0.000000000000   0.000000000000
				   0.000000000000   0.000000000000   0.000000000000
				   0.000000000000   0.000000000000   0.000000000000
				   0.000000000000   0.000000000000   0.000000000000
				   0.000000000000   0.000000000000   0.000000000000
				   0.000000000000   0.000000000000   0.000000000000
				   0.000000000000   0.000000000000   0.000000000000
				   0.000000000000   0.000000000000   0.000000000000
				   0.000000000000   0.000000000000   0.000000000000
				   0.000000000000   0.000000000000   0.000000000000
				   0.000000000000   0.000000000000   0.000000000000
				   0.000000000000   0.000000000000   0.000000000000
				   0.000000000000   0.000000000000   0.000000000000
				   0.000000000000   0.000000000000   0.000000000000
				   0.000000000000   0.000000000000   0.000000000000
				   0.000000000000   0.000000000000   0.000000000000
				   -0.000014588255   -0.000010520760   0.000000000000
				   -0.000036330779   0.000002303886   0.000000000000
				   -0.000093823189   0.000016799618   0.000000000000
				   -0.000184730858   0.000028004513   0.000000000000
				   -0.000303381260   0.000034450898   0.000000000000
				   -0.000444223367   0.000037406931   0.000000000000
				   -0.000599449801   0.000037994654   0.000000000000
				   -0.000767822282   0.000037866411   0.000000000000
				   -0.000947094140   0.000037753186   0.000000000000
				   -0.001136550788   0.000037746827   0.000000000000
				   -0.001333959225   0.000037614677   0.000000000000
				   -0.001538568305   0.000037180746   0.000000000000
				   -0.001747158990   0.000036308716   0.000000000000
				   -0.001958473772   0.000034667077   0.000000000000
				   -0.002168001302   0.000032400487   0.000000000000
				   -0.002369730544   0.000029289666   0.000000000000
				   -0.002557505014   0.000024861739   0.000000000000
				   -0.002722051173   0.000019461775   0.000000000000
				   -0.002850489987   0.000012277151   0.000000000000
				   -0.002929989925   0.000001507914   0.000000000000
				   -0.002947934298   -0.000008685586   0.000000000000
				   -0.002900248158   -0.000015190962   0.000000000000
				   -0.002796369526   -0.000020638985   0.000000000000
				   -0.002649800733   -0.000025792528   0.000000000000
				   -0.002470626235   -0.000030606431   0.000000000000
				   -0.002267350588   -0.000034801589   0.000000000000
				   -0.002048005510   -0.000037819380   0.000000000000
				   -0.001819228993   -0.000039653023   0.000000000000
				   -0.001586792730   -0.000040568779   0.000000000000
				   -0.001354050720   -0.000040943053   0.000000000000
				   -0.001127897439   -0.000040463836   0.000000000000
				   -0.000911696770   -0.000040370923   0.000000000000
				   -0.000711383748   -0.000041228645   0.000000000000
				   -0.000528643562   -0.000042290456   0.000000000000
				   -0.000364822451   -0.000041318975   0.000000000000
				   -0.000224779027   -0.000036049135   0.000000000000
				   -0.000117208874   -0.000024212795   0.000000000000
				   -0.000052330619   -0.000003674785   0.000000000000
				   -0.000035092104   0.000022296077   0.000000000000
				   0.000000000000   0.000000000000   0.000000000000
				   0.000000000000   0.000000000000   0.000000000000
				   -0.000028804556   0.000018400843   0.000000000000
				   -0.000085025036   0.000069068926   0.000000000000
				   -0.000198401222   0.000120343829   0.000000000000
				   -0.000366672237   0.000160318370   0.000000000000
				   -0.000582416086   0.000185019085   0.000000000000
				   -0.000838939135   0.000196974356   0.000000000000
				   -0.001123240103   0.000199763399   0.000000000000
				   -0.001432377588   0.000197857753   0.000000000000
				   -0.001761105962   0.000193989731   0.000000000000
				   -0.002107837257   0.000189099473   0.000000000000
				   -0.002468373630   0.000183062143   0.000000000000
				   -0.002841250567   0.000175346364   0.000000000000
				   -0.003220721124   0.000165463206   0.000000000000
				   -0.003604651642   0.000152429408   0.000000000000
				   -0.003984412868   0.000136070733   0.000000000000
				   -0.004348968194   0.000116010421   0.000000000000
				   -0.004686696809   0.000091383969   0.000000000000
				   -0.004980703774   0.000061620186   0.000000000000
				   -0.005208702043   0.000024128885   0.000000000000
				   -0.005346858051   -0.000022814249   0.000000000000
				   -0.005371849010   -0.000068509016   0.000000000000
				   -0.005279405805   -0.000106525298   0.000000000000
				   -0.005087124591   -0.000141814609   0.000000000000
				   -0.004818013022   -0.000173951569   0.000000000000
				   -0.004490894534   -0.000201792067   0.000000000000
				   -0.004121660982   -0.000225887601   0.000000000000
				   -0.003725044841   -0.000246018545   0.000000000000
				   -0.003312836348   -0.000261988038   0.000000000000
				   -0.002894982382   -0.000274293580   0.000000000000
				   -0.002476328107   -0.000284053558   0.000000000000
				   -0.002068726869   -0.000291107009   0.000000000000
				   -0.001676489297   -0.000296699013   0.000000000000
				   -0.001308760598   -0.000300212440   0.000000000000
				   -0.000971159406   -0.000298375698   0.000000000000
				   -0.000670376517   -0.000285690696   0.000000000000
				   -0.000415738014   -0.000256482636   0.000000000000
				   -0.000218962043   -0.000205109260   0.000000000000
				   -0.000092456504   -0.000130763974   0.000000000000
				   -0.000047647592   -0.000036812035   0.000000000000
				   0.000000000000   0.000000000000   0.000000000000
				   0.000000000000   0.000000000000   0.000000000000
				   -0.000042871057   0.000074938523   0.000000000000
				   -0.000133518349   0.000184564349   0.000000000000
				   -0.000296905877   0.000289698125   0.000000000000
				   -0.000528832855   0.000372286126   0.000000000000
				   -0.000820537396   0.000425384714   0.000000000000
				   -0.001165523311   0.000452686344   0.000000000000
				   -0.001547941189   0.000460648314   0.000000000000
				   -0.001964388769   0.000457458659   0.000000000000
				   -0.002407624093   0.000448633625   0.000000000000
				   -0.002875347206   0.000436497551   0.000000000000
				   -0.003361529401   0.000421236646   0.000000000000
				   -0.003863856175   0.000401933225   0.000000000000
				   -0.004374379773   0.000377645569   0.000000000000
				   -0.004890083614   0.000346746630   0.000000000000
				   -0.005398730340   0.000308728041   0.000000000000
				   -0.005885642569   0.000262469378   0.000000000000
				   -0.006335120222   0.000205515156   0.000000000000
				   -0.006724163799   0.000136694316   0.000000000000
				   -0.007023811903   0.000053968005   0.000000000000
				   -0.007202149413   -0.000044619435   0.000000000000
				   -0.007227454772   -0.000144467875   0.000000000000
				   -0.007096850062   -0.000233332563   0.000000000000
				   -0.006834408532   -0.000313944362   0.000000000000
				   -0.006469946870   -0.000385811649   0.000000000000
				   -0.006029271884   -0.000448949234   0.000000000000
				   -0.005533289771   -0.000503921104   0.000000000000
				   -0.005001509883   -0.000549977083   0.000000000000
				   -0.004450101009   -0.000587367988   0.000000000000
				   -0.003892533512   -0.000617108974   0.000000000000
				   -0.003334559966   -0.000640923822   0.000000000000
				   -0.002792215942   -0.000658557918   0.000000000000
				   -0.002270958133   -0.000670790885   0.000000000000
				   -0.001781667731   -0.000675236080   0.000000000000
				   -0.001331753098   -0.000665542595   0.000000000000
				   -0.000931011183   -0.000632249121   0.000000000000
				   -0.000590958905   -0.000565784064   0.000000000000
				   -0.000323743185   -0.000457859650   0.000000000000
				   -0.000142095330   -0.000311146164   0.000000000000
				   -0.000061807605   -0.000132424855   0.000000000000
				   0.000000000000   0.000000000000   0.000000000000
				   0.000000000000   0.000000000000   0.000000000000
				   -0.000053548158   0.000163383727   0.000000000000
				   -0.000171292981   0.000351871912   0.000000000000
				   -0.000373594849   0.000524508249   0.000000000000
				   -0.000653733155   0.000659284005   0.000000000000
				   -0.001001192226   0.000747476496   0.000000000000
				   -0.001409682876   0.000794332056   0.000000000000
				   -0.001861678985   0.000809425898   0.000000000000
				   -0.002353934399   0.000805101978   0.000000000000
				   -0.002878123747   0.000790075554   0.000000000000
				   -0.003431499797   0.000768431616   0.000000000000
				   -0.004006622535   0.000740875045   0.000000000000
				   -0.004600426351   0.000706168804   0.000000000000
				   -0.005203315439   0.000662918508   0.000000000000
				   -0.005811581979   0.000608671144   0.000000000000
				   -0.006410370364   0.000541877416   0.000000000000
				   -0.006982510004   0.000460393407   0.000000000000
				   -0.007509038391   0.000361592932   0.000000000000
				   -0.007962582861   0.000244127203   0.000000000000
				   -0.008310710583   0.000103704780   0.000000000000
				   -0.008515673801   -0.000062471287   0.000000000000
				   -0.008538162338   -0.000231409630   0.000000000000
				   -0.008377626264   -0.000383040540   0.000000000000
				   -0.008064228473   -0.000521392754   0.000000000000
				   -0.007632032215   -0.000646604119   0.000000000000
				   -0.007111159703   -0.000756749484   0.000000000000
				   -0.006525985559   -0.000852029289   0.000000000000
				   -0.005899490820   -0.000932460720   0.000000000000
				   -0.005250808338   -0.000998726860   0.000000000000
				   -0.004595874408   -0.001052032303   0.000000000000
				   -0.003941019738   -0.001094904647   0.000000000000
				   -0.003305266081   -0.001127060007   0.000000000000
				   -0.002694910105   -0.001148510664   0.000000000000
				   -0.002121927569   -0.001154619826   0.000000000000
				   -0.001594797569   -0.001135311705   0.000000000000
				   -0.001124992158   -0.001076648072   0.000000000000
				   -0.000724591634   -0.000964887043   0.000000000000
				   -0.000405763288   -0.000788855878   0.000000000000
				   -0.000182888359   -0.000552947823   0.000000000000
				   -0.000074863572   -0.000265765318   0.000000000000
				   0.000000000000   0.000000000000   0.000000000000
				   0.000000000000   0.000000000000   0.000000000000
				   -0.000061198502   0.000279138413   0.000000000000
				   -0.000197101229   0.000564982928   0.000000000000
				   -0.000426104535   0.000817319690   0.000000000000
				   -0.000739357200   0.001011948843   0.000000000000
				   -0.001124490248   0.001140014594   0.000000000000
				   -0.001575068382   0.001209204699   0.000000000000
				   -0.002072489118   0.001232650413   0.000000000000
				   -0.002613944861   0.001227154695   0.000000000000
				   -0.003190657824   0.001204860276   0.000000000000
				   -0.003799699856   0.001171800389   0.000000000000
				   -0.004432699272   0.001129299681   0.000000000000
				   -0.005086038044   0.001075798257   0.000000000000
				   -0.005749036420   0.001009300287   0.000000000000
				   -0.006417577064   0.000926273073   0.000000000000
				   -0.007074849401   0.000824556995   0.000000000000
				   -0.007701849138   0.000701837627   0.000000000000
				   -0.008277841028   0.000554058705   0.000000000000
				   -0.008773173730   0.000377350842   0.000000000000
				   -0.009153072269   0.000167515070   0.000000000000
				   -0.009374985988   -0.000075101831   0.000000000000
				   -0.009394304687   -0.000322333064   0.000000000000
				   -0.009213638075   -0.000550006719   0.000000000000
				   -0.008866991543   -0.000759485690   0.000000000000
				   -0.008390206057   -0.000948085038   0.000000000000
				   -0.007816813550   -0.001113929366   0.000000000000
				   -0.007173662678   -0.001258257760   0.000000000000
				   -0.006485588129   -0.001380784805   0.000000000000
				   -0.005773642540   -0.001482272514   0.000000000000
				   -0.005055639381   -0.001564591228   0.000000000000
				   -0.004338274846   -0.001631047940   0.000000000000
				   -0.003642581607   -0.001681140767   0.000000000000
				   -0.002975465537   -0.001713987085   0.000000000000
				   -0.002349270787   -0.001722452113   0.000000000000
				   -0.001772792953   -0.001692434832   0.000000000000
				   -0.001258146250   -0.001605124598   0.000000000000
				   -0.000817470001   -0.001442295972   0.000000000000
				   -0.000463284045   -0.001189174240   0.000000000000
				   -0.000212520717   -0.000849339872   0.000000000000
				   -0.000085432475   -0.000431947214   0.000000000000
				   0.000000000000   0.000000000000   0.000000000000
				   0.000000000000   0.000000000000   0.000000000000
				   -0.000066467411   0.000418933990   0.000000000000
				   -0.000213299356   0.000820193319   0.000000000000
				   -0.000458918712   0.001165028916   0.000000000000
				   -0.000793271318   0.001427540106   0.000000000000
				   -0.001202478732   0.001600092876   0.000000000000
				   -0.001679676684   0.001693992251   0.000000000000
				   -0.002205462379   0.001726587587   0.000000000000
				   -0.002777439381   0.001719609991   0.000000000000
				   -0.003386679705   0.001688879078   0.000000000000
				   -0.004030270910   0.001642476726   0.000000000000
				   -0.004699317844   0.001582393459   0.000000000000
				   -0.005389881708   0.001506730667   0.000000000000
				   -0.006090623017   0.001412935719   0.000000000000
				   -0.006797066222   0.001296683856   0.000000000000
				   -0.007491103997   0.001155119163   0.000000000000
				   -0.008153039414   0.000984276791   0.000000000000
				   -0.008761193977   0.000778428560   0.000000000000
				   -0.009283746736   0.000534419641   0.000000000000
				   -0.009684624797   0.000248633690   0.000000000000
				   -0.009918970865   -0.000080675806   0.000000000000
				   -0.009937733101   -0.000420509972   0.000000000000
				   -0.009744873706   -0.000736104614   0.000000000000
				   -0.009377510227   -0.001025480295   0.000000000000
				   -0.008873134005   -0.001287107348   0.000000000000
				   -0.008267159353   -0.001518681815   0.000000000000
				   -0.007587499789   -0.001720483676   0.000000000000
				   -0.006860327200   -0.001892262361   0.000000000000
				   -0.006108193411   -0.002035448206   0.000000000000
				   -0.005350130707   -0.002152326008   0.000000000000
				   -0.004593022269   -0.002246840269   0.000000000000
				   -0.003859248178   -0.002318284082   0.000000000000
				   -0.003156162130   -0.002364862292   0.000000000000
				   -0.002496192195   -0.002376754779   0.000000000000
				   -0.001888166801   -0.002335492577   0.000000000000
				   -0.001344565914   -0.002216976024   0.000000000000
				   -0.000877651501   -0.001997639125   0.000000000000
				   -0.000500647427   -0.001657831861   0.000000000000
				   -0.000232754745   -0.001198389063   0.000000000000
				   -0.000093980742   -0.000629014172   0.000000000000
				   0.000000000000   0.000000000000   0.000000000000
				   0.000000000000   0.000000000000   0.000000000000
				   -0.000069975604   0.000576069703   0.000000000000
				   -0.000222762370   0.001107080229   0.000000000000
				   -0.000477982636   0.001555213984   0.000000000000
				   -0.000825128415   0.001892603890   0.000000000000
				   -0.001249287000   0.002113518656   0.000000000000
				   -0.001743135913   0.002233874360   0.000000000000
				   -0.002286644648   0.002275948052   0.000000000000
				   -0.002877639648   0.002266984725   0.000000000000
				   -0.003507116265   0.002226769870   0.000000000000
				   -0.004172265616   0.002165518525   0.000000000000
				   -0.004863935894   0.002085906210   0.000000000000
				   -0.005578054697   0.001985692600   0.000000000000
				   -0.006302882239   0.001861821767   0.000000000000
				   -0.007033844291   0.001708795309   0.000000000000
				   -0.007752272133   0.001522451664   0.000000000000
				   -0.008437885722   0.001298127449   0.000000000000
				   -0.009067999718   0.001030176512   0.000000000000
				   -0.009609905167   0.000714074787   0.000000000000
				   -0.010027485326   0.000343379457   0.000000000000
				   -0.010273264978   -0.000082525277   0.000000000000
				   -0.010293620874   -0.000521707048   0.000000000000
				   -0.010094445494   -0.000932077436   0.000000000000
				   -0.009715756735   -0.001310949502   0.000000000000
				   -0.009194972853   -0.001654750440   0.000000000000
				   -0.008568407829   -0.001959239808   0.000000000000
				   -0.007865169595   -0.002225175514   0.000000000000
				   -0.007112376768   -0.002452555961   0.000000000000
				   -0.006333494569   -0.002642842992   0.000000000000
				   -0.005548531746   -0.002798736446   0.000000000000
				   -0.004764613849   -0.002925023481   0.000000000000
				   -0.004005023114   -0.003020700548   0.000000000000
				   -0.003277419460   -0.003083122958   0.000000000000
				   -0.002594282701   -0.003099708105   0.000000000000
				   -0.001964583668   -0.003047367693   0.000000000000
				   -0.001401179129   -0.002896019653   0.000000000000
				   -0.000916626972   -0.002615684721   0.000000000000
				   -0.000524923105   -0.002180724987   0.000000000000
				   -0.000246717261   -0.001587831886   0.000000000000
				   -0.000100418474   -0.000848877175   0.000000000000
				   0.000000000000   0.000000000000   0.000000000000
				   0.000000000000   0.000000000000   0.000000000000
				   -0.000072682433   0.000749044912   0.000000000000
				   -0.000229202008   0.001424756019   0.000000000000
				   -0.000490643535   0.001988110260   0.000000000000
				   -0.000846552793   0.002408702111   0.000000000000
				   -0.001281439539   0.002682831768   0.000000000000
				   -0.001787611802   0.002831902331   0.000000000000
				   -0.002344454836   0.002883963914   0.000000000000
				   -0.002949845292   0.002872553436   0.000000000000
				   -0.003594666532   0.002821836523   0.000000000000
				   -0.004276216937   0.002744296165   0.000000000000
				   -0.004985213797   0.002643294780   0.000000000000
				   -0.005717571522   0.002516182453   0.000000000000
				   -0.006461370227   0.002359220161   0.000000000000
				   -0.007212098671   0.002165628687   0.000000000000
				   -0.007950507573   0.001930707950   0.000000000000
				   -0.008655823898   0.001649212579   0.000000000000
				   -0.009305322640   0.001313307638   0.000000000000
				   -0.009865670178   0.000916746646   0.000000000000
				   -0.010299477411   0.000454038945   0.000000000000
				   -0.010557093873   -0.000074549541   0.000000000000
				   -0.010582167207   -0.000622744217   0.000000000000
				   -0.010381473635   -0.001139738677   0.000000000000
				   -0.009996123434   -0.001617765726   0.000000000000
				   -0.009463696274   -0.002051864219   0.000000000000
				   -0.008821736033   -0.002437701358   0.000000000000
				   -0.008100036748   -0.002775761216   0.000000000000
				   -0.007326342585   -0.003065517946   0.000000000000
				   -0.006525128452   -0.003308712020   0.000000000000
				   -0.005717347996   -0.003508574832   0.000000000000
				   -0.004910356063   -0.003670722532   0.000000000000
				   -0.004128242879   -0.003793822068   0.000000000000
				   -0.003378957414   -0.003874490886   0.000000000000
				   -0.002675162647   -0.003897195399   0.000000000000
				   -0.002026249931   -0.003833649062   0.000000000000
				   -0.001445617215   -0.003646873921   0.000000000000
				   -0.000946342626   -0.003299367989   0.000000000000
				   -0.000542970419   -0.002758468282   0.000000000000
				   -0.000257101882   -0.002016152513   0.000000000000
				   -0.000105073417   -0.001087762710   0.000000000000
				   0.000000000000   0.000000000000   0.000000000000
				   0.000000000000   0.000000000000   0.000000000000
				   -0.000075132882   0.000936597935   0.000000000000
				   -0.000234870354   0.001771685935   0.000000000000
				   -0.000501770729   0.002462163968   0.000000000000
				   -0.000865622949   0.002974555264   0.000000000000
				   -0.001310619239   0.003307120260   0.000000000000
				   -0.001828734815   0.003487484832   0.000000000000
				   -0.002398757738   0.003550279833   0.000000000000
				   -0.003018538522   0.003536108658   0.000000000000
				   -0.003678763164   0.003473989099   0.000000000000
				   -0.004376797716   0.003378875347   0.000000000000
				   -0.005103251377   0.003254836028   0.000000000000
				   -0.005854097176   0.003098721441   0.000000000000
				   -0.006617292601   0.002906127352   0.000000000000
				   -0.007388318444   0.002669178910   0.000000000000
				   -0.008147554844   0.002382221050   0.000000000000
				   -0.008874195548   0.002038323691   0.000000000000
				   -0.009545165868   0.001628418854   0.000000000000
				   -0.010125787308   0.001146553679   0.000000000000
				   -0.010577933028   0.000585620365   0.000000000000
				   -0.010850659362   -0.000056440802   0.000000000000
				   -0.010883946263   -0.000725184909   0.000000000000
				   -0.010684081280   -0.001357746978   0.000000000000
				   -0.010293921487   -0.001943941674   0.000000000000
				   -0.009751470425   -0.002478304839   0.000000000000
				   -0.009094751736   -0.002954593332   0.000000000000
				   -0.008354278223   -0.003372672035   0.000000000000
				   -0.007558813856   -0.003731946475   0.000000000000
				   -0.006733891015   -0.004034313313   0.000000000000
				   -0.005901389434   -0.004283354574   0.000000000000
				   -0.005069041417   -0.004485684431   0.000000000000
				   -0.004261863146   -0.004639605261   0.000000000000
				   -0.003488129506   -0.004741028685   0.000000000000
				   -0.002760933384   -0.004771248322   0.000000000000
				   -0.002090393232   -0.004696178352   0.000000000000
				   -0.001490718386   -0.004470990019   0.000000000000
				   -0.000975587710   -0.004049585487   0.000000000000
				   -0.000559978396   -0.003391420699   0.000000000000
				   -0.000266090793   -0.002483578490   0.000000000000
				   -0.000108449514   -0.001344793486   0.000000000000
				   0.000000000000   0.000000000000   0.000000000000
				   0.000000000000   0.000000000000   0.000000000000
				   -0.000077978642   0.001141987256   0.000000000000
				   -0.000241518579   0.002153382563   0.000000000000
				   -0.000514718924   0.002984729726   0.000000000000
				   -0.000887712416   0.003599044336   0.000000000000
				   -0.001344475930   0.003996446413   0.000000000000
				   -0.001876626646   0.004211476603   0.000000000000
				   -0.002462366984   0.004286128278   0.000000000000
				   -0.003099464895   0.004268944992   0.000000000000
				   -0.003778277869   0.004194426263   0.000000000000
				   -0.004496213794   0.004080264875   0.000000000000
				   -0.005243713423   0.003931273522   0.000000000000
				   -0.006016815869   0.003743781207   0.000000000000
				   -0.006803319825   0.003512688208   0.000000000000
				   -0.007598817671   0.003228632724   0.000000000000
				   -0.008383476522   0.002884701327   0.000000000000
				   -0.009136067761   0.002473108872   0.000000000000
				   -0.009832941224   0.001983759985   0.000000000000
				   -0.010438717061   0.001408670522   0.000000000000
				   -0.010914304184   0.000738497735   0.000000000000
				   -0.011206349926   -0.000028265874   0.000000000000
				   -0.011251045230   -0.000828389818   0.000000000000
				   -0.011054403835   -0.001588813983   0.000000000000
				   -0.010660457666   -0.002296119994   0.000000000000
				   -0.010107149123   -0.002942409381   0.000000000000
				   -0.009433349759   -0.003519851568   0.000000000000
				   -0.008670675214   -0.004028128096   0.000000000000
				   -0.007848978754   -0.004466064220   0.000000000000
				   -0.006995022035   -0.004835463933   0.000000000000
				   -0.006131863938   -0.005140326646   0.000000000000
				   -0.005267785282   -0.005388421059   0.000000000000
				   -0.004428984234   -0.005577564470   0.000000000000
				   -0.003624214149   -0.005702952686   0.000000000000
				   -0.002867301070   -0.005742360402   0.000000000000
				   -0.002169379447   -0.005655147691   0.000000000000
				   -0.001545755734   -0.005387608415   0.000000000000
				   -0.001010866471   -0.004884018801   0.000000000000
				   -0.000580080302   -0.004094876728   0.000000000000
				   -0.000276118702   -0.003002419938   0.000000000000
				   -0.000112110848   -0.001627731132   0.000000000000
				   0.000000000000   0.000000000000   0.000000000000
				   0.000000000000   0.000000000000   0.000000000000
				   -0.000081538048   0.001367903379   0.000000000000
				   -0.000249859827   0.002574235151   0.000000000000
				   -0.000530955140   0.003561586818   0.000000000000
				   -0.000915408372   0.004289035946   0.000000000000
				   -0.001386842218   0.004758523557   0.000000000000
				   -0.001936501372   0.005012154573   0.000000000000
				   -0.002541992522   0.005100060823   0.000000000000
				   -0.003200875141   0.005079705899   0.000000000000
				   -0.003903133150   0.004991718404   0.000000000000
				   -0.004646184283   0.004856831539   0.000000000000
				   -0.005420167803   0.004680742917   0.000000000000
				   -0.006221212740   0.004459196047   0.000000000000
				   -0.007036948311   0.004186195691   0.000000000000
				   -0.007863138356   0.003850784477   0.000000000000
				   -0.008679498695   0.003445117767   0.000000000000
				   -0.009464341478   0.002960196007   0.000000000000
				   -0.010193848742   0.002383595461   0.000000000000
				   -0.010831502095   0.001705888787   0.000000000000
				   -0.011336372020   0.000916850620   0.000000000000
				   -0.011653150056   0.000013621583   0.000000000000
				   -0.011714155225   -0.000932539250   0.000000000000
				   -0.011523517471   -0.001835467734   0.000000000000
				   -0.011126057114   -0.002677533817   0.000000000000
				   -0.010560346338   -0.003449322222   0.000000000000
				   -0.009866199469   -0.004141227546   0.000000000000
				   -0.009076269127   -0.004752005016   0.000000000000
				   -0.008221843172   -0.005279627767   0.000000000000
				   -0.007331293246   -0.005725759586   0.000000000000
				   -0.006429135049   -0.006094718513   0.000000000000
				   -0.005524415047   -0.006395535552   0.000000000000
				   -0.004644900956   -0.006625396812   0.000000000000
				   -0.003800051964   -0.006778687256   0.000000000000
				   -0.003004767484   -0.006829196928   0.000000000000
				   -0.002271522817   -0.006728890542   0.000000000000
				   -0.001617064360   -0.006414111846   0.000000000000
				   -0.001056755103   -0.005818481412   0.000000000000
				   -0.000606423433   -0.004882402661   0.000000000000
				   -0.000289276661   -0.003583216682   0.000000000000
				   -0.000117136198   -0.001943557640   0.000000000000
				   0.000000000000   0.000000000000   0.000000000000
				   0.000000000000   0.000000000000   0.000000000000
				   -0.000086073038   0.001619281620   0.000000000000
				   -0.000260459310   0.003043159176   0.000000000000
				   -0.000551526381   0.004204974984   0.000000000000
				   -0.000950458830   0.005059290332   0.000000000000
				   -0.001440293456   0.005609850835   0.000000000000
				   -0.002011990747   0.005907032398   0.000000000000
				   -0.002642402825   0.006010054984   0.000000000000
				   -0.003328777706   0.005986426475   0.000000000000
				   -0.004060705658   0.005883667909   0.000000000000
				   -0.004835484606   0.005726045540   0.000000000000
				   -0.005642885647   0.005520250698   0.000000000000
				   -0.006479139519   0.005261324277   0.000000000000
				   -0.007331629810   0.004942361167   0.000000000000
				   -0.008196276630   0.004550784015   0.000000000000
				   -0.009052315505   0.004077450335   0.000000000000
				   -0.009877740482   0.003511637920   0.000000000000
				   -0.010648223996   0.002839091435   0.000000000000
				   -0.011325741118   0.002049093499   0.000000000000
				   -0.011867887843   0.001128672856   0.000000000000
				   -0.012217271759   0.000073039864   0.000000000000
				   -0.012300754596   -0.001036071342   0.000000000000
				   -0.012119620019   -0.002098394028   0.000000000000
				   -0.011719804648   -0.003092965010   0.000000000000
				   -0.011140379529   -0.004008085997   0.000000000000
				   -0.010421944189   -0.004831385162   0.000000000000