<VTKFile type="UnstructuredGrid" version="0.1" byte_order="BigEndian">
	<UnstructuredGrid>
		<Piece NumberOfPoints="1681" NumberOfCells="3200">
			<PointData Scalars="scalars" Vectors = "Velocity">
				<DataArray type="Float32" Name="Velocity" NumberOfComponents="3" Format="ascii">
				   0.000000000000   0.000000000000   0.000000000000
				   0.000000000000   0.000000000000   0.000000000000
				   0.000000000000   0.000000000000   0.000000000000
				   0.000000000000   0.000000000000   0.000000000000
				   0.000000000000   0.000000000000   0.000000000000
				   0.000000000000   0.000000000000   0.000000000000
				   0.000000000000   0.000000000000   0.000000000000
				   0.000000000000   0.000000000000   0.000000000000
				   0.000000000000   0.000000000000   0.000000000000
				   0.000000000000   0.000000000000   0.000000000000
				   0.000000000000   0.000000000000   0.000000000000
				   0.000000000000   0.000000000000   0.000000000000
				   0.000000000000   0.000000000000   0.000000000000
				   0.000000000000   0.000000000000   0.000000000000
				   0.000000000000   0.000000000000   0.000000000000
				   0.000000000000   0.000000000000   0.000000000000
				   0.000000000000   0.000000000000   0.000000000000
				   0.000000000000   0.000000000000   0.000000000000
				   0.000000000000   0.000000000000   0.000000000000
				   0.000000000000   0.000000000000   0.000000000000
				   0.000000000000   0.000000000000   0.000000000000
				   0.000000000000   0.000000000000   0.000000000000
				   0.000000000000   0.000000000000   0.000000000000
				   0.000000000000   0.000000000000   0.000000000000
				   0.000000000000   0.000000000000   0.000000000000
				   0.000000000000   0.000000000000   0.000000000000
				   0.000000000000   0.000000000000   0.000000000000
				   0.000000000000   0.000000000000   0.000000000000
				   0.000000000000   0.000000000000   0.000000000000
				   0.000000000000   0.000000000000   0.000000000000
				   0.000000000000   0.000000000000   0.000000000000
				   0.000000000000   0.000000000000   0.000000000000
				   0.000000000000   0.000000000000   0.000000000000
				   0.000000000000   0.000000000000   0.000000000000
				   0.000000000000   0.000000000000   0.000000000000
				   0.000000000000   0.000000000000   0.000000000000
				   0.000000000000   0.000000000000   0.000000000000
				   0.000000000000   0.000000000000   0.000000000000
				   0.000000000000   0.000000000000   0.000000000000
				   0.000000000000   0.000000000000   0.000000000000
				   0.000000000000   0.000000000000   0.000000000000
				   0.000000000000   0.000000000000   0.000000000000
				   -0.000095885413   -0.000088778662   0.000000000000
				   -0.000131658408   -0.000078646010   0.000000000000
				   -0.000187005115   -0.000051292089   0.000000000000
				   -0.000267788835   -0.000022597776   0.000000000000
				   -0.000380063472   0.000002625743   0.000000000000
				   -0.000531123369   0.000023927718   0.000000000000
				   -0.000718601496   0.000042160008   0.000000000000
				   -0.000940532949   0.000056441472   0.000000000000
				   -0.001190665675   0.000067570417   0.000000000000
				   -0.001467587192   0.000075778715   0.000000000000
				   -0.001767804703   0.000081523483   0.000000000000
				   -0.002090497487   0.000085361238   0.000000000000
				   -0.002432227343   0.000087104957   0.000000000000
				   -0.002794663129   0.000087535945   0.000000000000
				   -0.003172305769   0.000086277556   0.000000000000
				   -0.003558058269   0.000082575643   0.000000000000
				   -0.003941350379   0.000075633074   0.000000000000
				   -0.004302501301   0.000064134238   0.000000000000
				   -0.004613023968   0.000046901467   0.000000000000
				   -0.004829273833   0.000021347852   0.000000000000
				   -0.004899816414   -0.000008939765   0.000000000000
				   -0.004812864550   -0.000037160958   0.000000000000
				   -0.004589875268   -0.000062560121   0.000000000000
				   -0.004258145089   -0.000083721030   0.000000000000
				   -0.003849315580   -0.000099479021   0.000000000000
				   -0.003393362891   -0.000109797835   0.000000000000
				   -0.002917949848   -0.000114850330   0.000000000000
				   -0.002445931450   -0.000114958418   0.000000000000
				   -0.001995861069   -0.000109636138   0.000000000000
				   -0.001578654138   -0.000098831195   0.000000000000
				   -0.001207343391   -0.000084425569   0.000000000000
				   -0.000886948510   -0.000064344627   0.000000000000
				   -0.000622396140   -0.000040134689   0.000000000000
				   -0.000416023962   -0.000013485075   0.000000000000
				   -0.000268461322   0.000013606908   0.000000000000
				   -0.000174640202   0.000042615305   0.000000000000
				   -0.000120649425   0.000068581592   0.000000000000
				   -0.000082969643   0.000078060428   0.000000000000
				   -0.000057078346   0.000081089339   0.000000000000
				   0.000000000000   0.000000000000   0.000000000000
				   0.000000000000   0.000000000000   0.000000000000
				   -0.000108055871   -0.000080033978   0.000000000000
				   -0.000177399123   -0.000034412123   0.000000000000
				   -0.000297530059   0.000024815436   0.000000000000
				   -0.000478523903   0.000087431206   0.000000000000
				   -0.000723932370   0.000148536737   0.000000000000
				   -0.001041279938   0.000202170137   0.000000000000
				   -0.001425050641   0.000245622684   0.000000000000
				   -0.001872377205   0.000276038864   0.000000000000
				   -0.002372881308   0.000296933404   0.000000000000
				   -0.002921640703   0.000309943144   0.000000000000
				   -0.003510880726   0.000317016082   0.000000000000
				   -0.004137793717   0.000319510122   0.000000000000
				   -0.004796469744   0.000317782063   0.000000000000
				   -0.005488959875   0.000312180195   0.000000000000
				   -0.006205356648   0.000302022665   0.000000000000
				   -0.006932612354   0.000284975401   0.000000000000
				   -0.007651548262   0.000258247668   0.000000000000
				   -0.008326381167   0.000218404885   0.000000000000
				   -0.008905707601   0.000161223032   0.000000000000
				   -0.009308878919   0.000080118055   0.000000000000
				   -0.009441878468   -0.000016030651   0.000000000000
				   -0.009286060508   -0.000110363642   0.000000000000
				   -0.008879075719   -0.000199307380   0.000000000000
				   -0.008270059061   -0.000277799758   0.000000000000
				   -0.007516391563   -0.000341369553   0.000000000000
				   -0.006670365388   -0.000388961569   0.000000000000
				   -0.005781812700   -0.000420212988   0.000000000000
				   -0.004892491460   -0.000435657599   0.000000000000
				   -0.004036605463   -0.000434189805   0.000000000000
				   -0.003231094680   -0.000417479426   0.000000000000
				   -0.002504921243   -0.000387088542   0.000000000000
				   -0.001866698752   -0.000340395867   0.000000000000
				   -0.001327262636   -0.000279895136   0.000000000000
				   -0.000892702625   -0.000208856360   0.000000000000
				   -0.000565272322   -0.000131674890   0.000000000000
				   -0.000336559675   -0.000051447331   0.000000000000
				   -0.000189574101   0.000018643757   0.000000000000
				   -0.000108423123   0.000070551674   0.000000000000
				   -0.000071287794   0.000115588075   0.000000000000
				   0.000000000000   0.000000000000   0.000000000000
				   0.000000000000   0.000000000000   0.000000000000
				   -0.000112235210   -0.000026947466   0.000000000000
				   -0.000231558142   0.000072147724   0.000000000000
				   -0.000419372165   0.000191061717   0.000000000000
				   -0.000691798536   0.000311566100   0.000000000000
				   -0.001054240779   0.000428897993   0.000000000000
				   -0.001516399280   0.000531693717   0.000000000000
				   -0.002070024676   0.000612500586   0.000000000000
				   -0.002713569337   0.000666864799   0.000000000000
				   -0.003433964238   0.000701144515   0.000000000000
				   -0.004224440869   0.000719228458   0.000000000000
				   -0.005073030067   0.000725420774   0.000000000000
				   -0.005975028016   0.000722659227   0.000000000000
				   -0.006920567949   0.000712369426   0.000000000000
				   -0.007911416840   0.000693993238   0.000000000000
				   -0.008932583427   0.000666332039   0.000000000000
				   -0.009964277314   0.000624601963   0.000000000000
				   -0.010979002786   0.000562913926   0.000000000000
				   -0.011925959397   0.000474368201   0.000000000000
				   -0.012733701326   0.000349726902   0.000000000000
				   -0.013292228192   0.000177719773   0.000000000000
				   -0.013471277110   -0.000025301753   0.000000000000
				   -0.013246323440   -0.000228814043   0.000000000000
				   -0.012670281168   -0.000423676646   0.000000000000
				   -0.011812706808   -0.000598544985   0.000000000000
				   -0.010753756905   -0.000743806877   0.000000000000
				   -0.009565137637   -0.000856388585   0.000000000000
				   -0.008315753925   -0.000934687753   0.000000000000
				   -0.007063626020   -0.000979412367   0.000000000000
				   -0.005855803006   -0.000989208834   0.000000000000
				   -0.004715624740   -0.000967678605   0.000000000000
				   -0.003685054234   -0.000915663040   0.000000000000
				   -0.002775307162   -0.000830739450   0.000000000000
				   -0.002001411251   -0.000716228050   0.000000000000
				   -0.001371512414   -0.000577009009   0.000000000000
				   -0.000887705375   -0.000421734600   0.000000000000
				   -0.000537920151   -0.000261259502   0.000000000000
				   -0.000302042346   -0.000116926162   0.000000000000
				   -0.000166741440   0.000008699017   0.000000000000
				   -0.000091145660   0.000107643807   0.000000000000
				   0.000000000000   0.000000000000   0.000000000000
				   0.000000000000   0.000000000000   0.000000000000
				   -0.000114047394   0.000079704880   0.000000000000
				   -0.000280017644   0.000253380069   0.000000000000
				   -0.000534672563   0.000453571387   0.000000000000
				   -0.000892471362   0.000652900200   0.000000000000
				   -0.001359623902   0.000844273652   0.000000000000
				   -0.001947912537   0.001011225630   0.000000000000
				   -0.002647102779   0.001140861975   0.000000000000
				   -0.003457586200   0.001227636300   0.000000000000
				   -0.004365277649   0.001280325545   0.000000000000
				   -0.005362951932   0.001305428223   0.000000000000
				   -0.006435713475   0.001309927510   0.000000000000
				   -0.007577269078   0.001298965002   0.000000000000
				   -0.008773841419   0.001275202389   0.000000000000
				   -0.010026270968   0.001237240627   0.000000000000
				   -0.011314135812   0.001182781749   0.000000000000
				   -0.012610886741   0.001104024950   0.000000000000
				   -0.013881223593   0.000991005209   0.000000000000
				   -0.015060765853   0.000831973819   0.000000000000
				   -0.016060669227   0.000611372844   0.000000000000
				   -0.016746406898   0.000312525016   0.000000000000
				   -0.016956242345   -0.000039395460   0.000000000000
				   -0.016661977702   -0.000396123114   0.000000000000
				   -0.015931981994   -0.000739277004   0.000000000000
				   -0.014854389306   -0.001048902976   0.000000000000
				   -0.013529376758   -0.001308659443   0.000000000000
				   -0.012045441056   -0.001512492801   0.000000000000
				   -0.010487759243   -0.001657067722   0.000000000000
				   -0.008928097814   -0.001743330618   0.000000000000
				   -0.007424268015   -0.001770018683   0.000000000000
				   -0.006004636218   -0.001742606415   0.000000000000
				   -0.004721217948   -0.001661824020   0.000000000000
				   -0.003586498422   -0.001525892797   0.000000000000
				   -0.002617482869   -0.001339082214   0.000000000000
				   -0.001822315798   -0.001108993145   0.000000000000
				   -0.001202371499   -0.000850519958   0.000000000000
				   -0.000743382491   -0.000583168916   0.000000000000
				   -0.000421515581   -0.000338348460   0.000000000000
				   -0.000219820602   -0.000124527567   0.000000000000
				   -0.000097988749   0.000037188621   0.000000000000
				   0.000000000000   0.000000000000   0.000000000000
				   0.000000000000   0.000000000000   0.000000000000
				   -0.000115541105   0.000237816574   0.000000000000
				   -0.000317656926   0.000515053100   0.000000000000
				   -0.000629750653   0.000818167472   0.000000000000
				   -0.001062725495   0.001114745242   0.000000000000
				   -0.001621711861   0.001395147346   0.000000000000
				   -0.002319263972   0.001638697235   0.000000000000
				   -0.003142854094   0.001827204933   0.000000000000
				   -0.004094765775   0.001954539413   0.000000000000
				   -0.005160632019   0.002031128168   0.000000000000
				   -0.006333648657   0.002066052638   0.000000000000
				   -0.007596956016   0.002069010043   0.000000000000
				   -0.008943203659   0.002047605177   0.000000000000
				   -0.010355185613   0.002005791631   0.000000000000
				   -0.011832552994   0.001941453973   0.000000000000
				   -0.013349393411   0.001850618466   0.000000000000
				   -0.014872892922   0.001721960290   0.000000000000
				   -0.016360642987   0.001540531001   0.000000000000
				   -0.017736260034   0.001288535315   0.000000000000
				   -0.018895876000   0.000943079999   0.000000000000
				   -0.019683667693   0.000481214299   0.000000000000
				   -0.019910262904   -0.000061856749   0.000000000000
				   -0.019546157871   -0.000615522213   0.000000000000
				   -0.018675298065   -0.001148349722   0.000000000000
				   -0.017402106089   -0.001629720145   0.000000000000
				   -0.015844488674   -0.002035057262   0.000000000000
				   -0.014105775234   -0.002354490857   0.000000000000
				   -0.012285200927   -0.002582642177   0.000000000000
				   -0.010466315890   -0.002720832818   0.000000000000
				   -0.008715996342   -0.002768355400   0.000000000000
				   -0.007066140350   -0.002732697880   0.000000000000
				   -0.005576105527   -0.002615487053   0.000000000000
				   -0.004258432241   -0.002416041454   0.000000000000
				   -0.003130428733   -0.002140756470   0.000000000000
				   -0.002199169736   -0.001801374214   0.000000000000
				   -0.001465179156   -0.001420079019   0.000000000000
				   -0.000913136307   -0.001025166678   0.000000000000
				   -0.000517307715   -0.000657951253   0.000000000000
				   -0.000258806010   -0.000334028179   0.000000000000
				   -0.000101002551   -0.000083145176   0.000000000000
				   0.000000000000   0.000000000000   0.000000000000
				   0.000000000000   0.000000000000   0.000000000000
				   -0.000116858530   0.000443487881   0.000000000000
				   -0.000347683712   0.000860700611   0.000000000000
				   -0.000709192551   0.001293356659   0.000000000000
				   -0.001208878314   0.001708118949   0.000000000000
				   -0.001849812748   0.002093625561   0.000000000000
				   -0.002644091841   0.002426618355   0.000000000000
				   -0.003576615439   0.002684024737   0.000000000000
				   -0.004650927672   0.002859979808   0.000000000000
				   -0.005852529490   0.002966141842   0.000000000000
				   -0.007175348241   0.003014042570   0.000000000000
				   -0.008601162696   0.003015971289   0.000000000000
				   -0.010122113136   0.002981964996   0.000000000000
				   -0.011718223402   0.002917293788   0.000000000000
				   -0.013388034885   0.002819211745   0.000000000000
				   -0.015100550208   0.002681544833   0.000000000000
				   -0.016817486652   0.002488879853   0.000000000000
				   -0.018490245151   0.002220388865   0.000000000000
				   -0.020032280076   0.001850936351   0.000000000000
				   -0.021326911469   0.001349097647   0.000000000000
				   -0.022199299276   0.000684534072   0.000000000000
				   -0.022435111646   -0.000096025917   0.000000000000
				   -0.022004394532   -0.000894198729   0.000000000000
				   -0.021005476466   -0.001661457989   0.000000000000
				   -0.019556800740   -0.002354320932   0.000000000000
				   -0.017792402585   -0.002938197281   0.000000000000
				   -0.015829313510   -0.003398500709   0.000000000000
				   -0.013779660486   -0.003727604602   0.000000000000
				   -0.011737668789   -0.003927485935   0.000000000000
				   -0.009778037684   -0.003998634691   0.000000000000
				   -0.007934948463   -0.003950883208   0.000000000000
				   -0.006273054287   -0.003787913924   0.000000000000
				   -0.004804047498   -0.003511209779   0.000000000000
				   -0.003544662996   -0.003130567543   0.000000000000
				   -0.002500509433   -0.002662821748   0.000000000000
				   -0.001671487855   -0.002138157314   0.000000000000
				   -0.001041903167   -0.001593769014   0.000000000000
				   -0.000585630277   -0.001079884327   0.000000000000
				   -0.000282859769   -0.000618383260   0.000000000000
				   -0.000099564301   -0.000246007511   0.000000000000
				   0.000000000000   0.000000000000   0.000000000000
				   0.000000000000   0.000000000000   0.000000000000
				   -0.000116260653   0.000691290604   0.000000000000
				   -0.000369906919   0.001283935577   0.000000000000
				   -0.000773719344   0.001873507745   0.000000000000
				   -0.001332007058   0.002427289846   0.000000000000
				   -0.002045077005   0.002933258457   0.000000000000
				   -0.002924102318   0.003366994690   0.000000000000
				   -0.003951061711   0.003701641887   0.000000000000
				   -0.005130115079   0.003932595884   0.000000000000
				   -0.006446446335   0.004072631861   0.000000000000
				   -0.007894632578   0.004135877011   0.000000000000
				   -0.009455564137   0.004137007791   0.000000000000
				   -0.011121269458   0.004088354060   0.000000000000
				   -0.012869813497   0.003996316793   0.000000000000
				   -0.014699048601   0.003857550336   0.000000000000
				   -0.016573930410   0.003663250273   0.000000000000
				   -0.018451848645   0.003393494141   0.000000000000
				   -0.020279374958   0.003020738883   0.000000000000
				   -0.021961974272   0.002511398648   0.000000000000
				   -0.023372643263   0.001824158260   0.000000000000
				   -0.024320146275   0.000919774685   0.000000000000
				   -0.024566795634   -0.000141946161   0.000000000000
				   -0.024080319097   -0.001229556968   0.000000000000
				   -0.022970686287   -0.002273754370   0.000000000000
				   -0.021367898055   -0.003215831459   0.000000000000
				   -0.019420720746   -0.004009098073   0.000000000000
				   -0.017259471224   -0.004633319271   0.000000000000
				   -0.015008821647   -0.005078444795   0.000000000000
				   -0.012773256679   -0.005347502110   0.000000000000
				   -0.010634473146   -0.005443104533   0.000000000000
				   -0.008628247382   -0.005378167132   0.000000000000
				   -0.006823066335   -0.005159867842   0.000000000000
				   -0.005229235653   -0.004793072748   0.000000000000
				   -0.003862360231   -0.004291842411   0.000000000000
				   -0.002726517985   -0.003678389230   0.000000000000
				   -0.001821310390   -0.002991017469   0.000000000000
				   -0.001130739681   -0.002275618019   0.000000000000
				   -0.000628601887   -0.001590609279   0.000000000000
				   -0.000294182344   -0.000964754576   0.000000000000
				   -0.000095214299   -0.000439627377   0.000000000000
				   0.000000000000   0.000000000000   0.000000000000
				   0.000000000000   0.000000000000   0.000000000000
				   -0.000116278532   0.000983275407   0.000000000000
				   -0.000390373308   0.001790869794   0.000000000000
				   -0.000832083071   0.002568229049   0.000000000000
				   -0.001442788192   0.003285006923   0.000000000000
				   -0.002219886821   0.003928893523   0.000000000000
				   -0.003173513525   0.004475804238   0.000000000000
				   -0.004282778380   0.004896225140   0.000000000000
				   -0.005552064377   0.005188024512   0.000000000000
				   -0.006965838372   0.005365494673   0.000000000000
				   -0.008519250814   0.005445647887   0.000000000000
				   -0.010192744247   0.005445549477   0.000000000000
				   -0.011978554803   0.005379798107   0.000000000000
				   -0.013853555154   0.005255686833   0.000000000000
				   -0.015815564183   0.005069102472   0.000000000000
				   -0.017826852606   0.004808212292   0.000000000000
				   -0.019841842589   0.004448115371   0.000000000000
				   -0.021803868939   0.003953592537   0.000000000000
				   -0.023612496575   0.003281317793   0.000000000000
				   -0.025132652789   0.002378191725   0.000000000000
				   -0.026158764852   0.001194007772   0.000000000000
				   -0.026429146634   -0.000197130115   0.000000000000
				   -0.025904368918   -0.001625089206   0.000000000000
				   -0.024702138029   -0.002995457205   0.000000000000
				   -0.022961753450   -0.004230845834   0.000000000000
				   -0.020846226660   -0.005269438141   0.000000000000
				   -0.018500181567   -0.006083986836   0.000000000000
				   -0.016062048647   -0.006661603092   0.000000000000
				   -0.013647475481   -0.007006975078   0.000000000000
				   -0.011345385711   -0.007126361049   0.000000000000
				   -0.009193225937   -0.007037110295   0.000000000000
				   -0.007262495492   -0.006751479655   0.000000000000
				   -0.005561589002   -0.006278967795   0.000000000000
				   -0.004104497219   -0.005638646175   0.000000000000
				   -0.002893668250   -0.004858548439   0.000000000000
				   -0.001928078513   -0.003985260865   0.000000000000
				   -0.001190680494   -0.003073246115   0.000000000000
				   -0.000654568907   -0.002188870811   0.000000000000
				   -0.000298078727   -0.001369244656   0.000000000000
				   -0.000089834951   -0.000660898566   0.000000000000
				   0.000000000000   0.000000000000   0.000000000000
				   0.000000000000   0.000000000000   0.000000000000
				   -0.000116485648   0.001319261030   0.000000000000
				   -0.000407021448   0.002381458816   0.000000000000
				   -0.000880476004   0.003378343594   0.000000000000
				   -0.001535842887   0.004282477918   0.000000000000
				   -0.002367875342   0.005081739847   0.000000000000
				   -0.003385460972   0.005753794905   0.000000000000
				   -0.004565123898   0.006267639802   0.000000000000
				   -0.005911083174   0.006625111735   0.000000000000
				   -0.007406944707   0.006842547860   0.000000000000
				   -0.009048267768   0.006940278478   0.000000000000
				   -0.010815330406   0.006937985860   0.000000000000
				   -0.012700924257   0.006852678066   0.000000000000
				   -0.014681505597   0.006692378623   0.000000000000
				   -0.016755687095   0.006451906197   0.000000000000
				   -0.018884526012   0.006115994556   0.000000000000
				   -0.021021174953   0.005654210377   0.000000000000
				   -0.023107591184   0.005022728258   0.000000000000
				   -0.025039613093   0.004167019534   0.000000000000
				   -0.026676123517   0.003019963665   0.000000000000
				   -0.027798682252   0.001517345496   0.000000000000
				   -0.028118381622   -0.000252461302   0.000000000000
				   -0.027580643451   -0.002075175273   0.000000000000
				   -0.026305885239   -0.003826197968   0.000000000000
				   -0.024440309316   -0.005404704199   0.000000000000
				   -0.022161493827   -0.006729376866   0.000000000000
				   -0.019630884496   -0.007763552314   0.000000000000
				   -0.017003707619   -0.008490730705   0.000000000000
				   -0.014409431657   -0.008918227083   0.000000000000
				   -0.011945868677   -0.009058191981   0.000000000000
				   -0.009652824321   -0.008934304569   0.000000000000
				   -0.007604581659   -0.008565907415   0.000000000000
				   -0.005807215189   -0.007968585312   0.000000000000
				   -0.004272585979   -0.007167463119   0.000000000000
				   -0.003001005439   -0.006196924897   0.000000000000
				   -0.001989720707   -0.005112052965   0.000000000000
				   -0.001219598439   -0.003976122830   0.000000000000
				   -0.000662087929   -0.002863650054   0.000000000000
				   -0.000294003373   -0.001821929288   0.000000000000
				   -0.000083529001   -0.000902090069   0.000000000000
				   0.000000000000   0.000000000000   0.000000000000
				   0.000000000000   0.000000000000   0.000000000000
				   -0.000117236966   0.001699015580   0.000000000000
				   -0.000420990503   0.003058795930   0.000000000000
				   -0.000920534104   0.004309680311   0.000000000000
				   -0.001613210760   0.005427714925   0.000000000000
				   -0.002491625093   0.006401430609   0.000000000000
				   -0.003563506642   0.007211761168   0.000000000000
				   -0.004802966163   0.007827402235   0.000000000000
				   -0.006214023013   0.008255529484   0.000000000000
				   -0.007779488040   0.008515309449   0.000000000000
				   -0.009495276561   0.008631072314   0.000000000000
				   -0.011341691173   0.008625587929   0.000000000000
				   -0.013312523660   0.008518518029   0.000000000000
				   -0.015384618195   0.008318713080   0.000000000000
				   -0.017558400755   0.008019651553   0.000000000000
				   -0.019795262386   0.007602129713   0.000000000000
				   -0.022048970562   0.007029517769   0.000000000000
				   -0.024262275062   0.006248243068   0.000000000000
				   -0.026329554469   0.005190745011   0.000000000000
				   -0.028105551096   0.003772844527   0.000000000000
				   -0.029359688909   0.001911763978   0.000000000000
				   -0.029769448203   -0.000291739946   0.000000000000
				   -0.029253373728   -0.002573985546   0.000000000000
				   -0.027927768588   -0.004773515108   0.000000000000
				   -0.025942960347   -0.006759069103   0.000000000000
				   -0.023492334976   -0.008422734616   0.000000000000
				   -0.020758843244   -0.009714099544   0.000000000000
				   -0.017920343346   -0.010611503053   0.000000000000
				   -0.015125458082   -0.011126305613   0.000000000000
				   -0.012484364787   -0.011279801453   0.000000000000
				   -0.010040613902   -0.011105032707   0.000000000000
				   -0.007871556040   -0.010631476810   0.000000000000
				   -0.005980203724   -0.009882819127   0.000000000000
				   -0.004375317069   -0.008891698091   0.000000000000
				   -0.003053681330   -0.007699743671   0.000000000000
				   -0.002009189950   -0.006371369215   0.000000000000
				   -0.001219209636   -0.004979477173   0.000000000000
				   -0.000652303007   -0.003607259742   0.000000000000
				   -0.000282456976   -0.002313894710   0.000000000000
				   -0.000076142107   -0.001156223802   0.000000000000
				   0.000000000000   0.000000000000   0.000000000000
				   0.000000000000   0.000000000000   0.000000000000
				   -0.000118187979   0.002120394553   0.000000000000
				   -0.000432168880   0.003820099292   0.000000000000
				   -0.000952613985   0.005359768354   0.000000000000
				   -0.001675888739   0.006718497872   0.000000000000
				   -0.002592898633   0.007886051784   0.000000000000
				   -0.003710431162   0.008848212983   0.000000000000
				   -0.005000598475   0.009574370810   0.000000000000
				   -0.006467281485   0.010078259189   0.000000000000
				   -0.008092678130   0.010382841285   0.000000000000
				   -0.009873142102   0.010517376722   0.000000000000
				   -0.011789263976   0.010508400209   0.000000000000
				   -0.013836292760   0.010378602021   0.000000000000
				   -0.015992326456   0.010137841247   0.000000000000
				   -0.018260796929   0.009778221933   0.000000000000
				   -0.020605086922   0.009276198914   0.000000000000
				   -0.022981650376   0.008588155272   0.000000000000
				   -0.025336494396   0.007649493163   0.000000000000
				   -0.027565097082   0.006377332033   0.000000000000
				   -0.029520187599   0.004666436585   0.000000000000
				   -0.030959481862   0.002409061290   0.000000000000
				   -0.031517542368   -0.000286947180   0.000000000000
				   -0.031069730428   -0.003104368428   0.000000000000
				   -0.029718697729   -0.005836439149   0.000000000000
				   -0.027614700802   -0.008311346644   0.000000000000
				   -0.024968656579   -0.010383395227   0.000000000000
				   -0.021992273085   -0.011980756300   0.000000000000
				   -0.018895729875   -0.013073469148   0.000000000000
				   -0.015855845301   -0.013678791218   0.000000000000
				   -0.013001110233   -0.013832045831   0.000000000000
				   -0.010381134563   -0.013580592735   0.000000000000
				   -0.008076895964   -0.012969002133   0.000000000000
				   -0.006086747520   -0.012032130447   0.000000000000
				   -0.004414475216   -0.010812318658   0.000000000000
				   -0.003051152064   -0.009359990605   0.000000000000
				   -0.001985091751   -0.007750369289   0.000000000000
				   -0.001188243224   -0.006067148609   0.000000000000
				   -0.000624461963   -0.004402848128   0.000000000000
				   -0.000263335062   -0.002830421903   0.000000000000
				   -0.000067808784   -0.001413675146   0.000000000000
				   0.000000000000   0.000000000000   0.000000000000
				   0.000000000000   0.000000000000   0.000000000000
				   -0.000119180828   0.002584890916   0.000000000000
				   -0.000441548950   0.004669035445   0.000000000000
				   -0.000979229369   0.006534151909   0.000000000000
				   -0.001728010983   0.008162484519   0.000000000000
				   -0.002677600768   0.009545347010   0.000000000000
				   -0.003834270543   0.010674802617   0.000000000000
				   -0.005168615352   0.011521890121   0.000000000000
				   -0.006684493221   0.012108139911   0.000000000000
				   -0.008363732844   0.012461281098   0.000000000000
				   -0.010203401387   0.012616558385   0.000000000000
				   -0.012184788558   0.012605194610   0.000000000000
				   -0.014305129497   0.012453569302   0.000000000000
				   -0.016544608183   0.012172940868   0.000000000000
				   -0.018911015190   0.011754200948   0.000000000000
				   -0.021371633482   0.011169104103   0.000000000000
				   -0.023887912100   0.010366286197   0.000000000000
				   -0.026412046455   0.009268635982   0.000000000000
				   -0.028843796435   0.007774943669   0.000000000000
				   -0.031036727919   0.005753572067   0.000000000000
				   -0.032737743923   0.003062293468   0.000000000000
				   -0.033525997448   -0.000194284729   0.000000000000
				   -0.033211152333   -0.003643368026   0.000000000000
				   -0.031867709890   -0.007021998504   0.000000000000
				   -0.029638398048   -0.010102817116   0.000000000000
				   -0.026753069997   -0.012684138867   0.000000000000