<VTKFile type="UnstructuredGrid" version="0.1" byte_order="BigEndian">
	<UnstructuredGrid>
		<Piece NumberOfPoints="1681" NumberOfCells="3200">
			<PointData Scalars="scalars" Vectors = "Velocity">
				<DataArray type="Float32" Name="Velocity" NumberOfComponents="3" Format="ascii">
				   0.000000000000   0.000000000000   0.000000000000
				   0.000000000000   0.000000000000   0.000000000000
				   0.000000000000   0.000000000000   0.000000000000
				   0.000000000000   0.000000000000   0.000000000000
				   0.000000000000   0.000000000000   0.000000000000
				   0.000000000000   0.000000000000   0.000000000000
				   0.000000000000   0.000000000000   0.000000000000
				   0.000000000000   0.000000000000   0.000000000000
				   0.000000000000   0.000000000000   0.000000000000
				   0.000000000000   0.000000000000   0.000000000000
				   0.000000000000   0.000000000000   0.000000000000
				   0.000000000000   0.000000000000   0.000000000000
				   0.000000000000   0.000000000000   0.000000000000
				   0.000000000000   0.000000000000   0.000000000000
				   0.000000000000   0.000000000000   0.000000000000
				   0.000000000000   0.000000000000   0.000000000000
				   0.000000000000   0.000000000000   0.000000000000
				   0.000000000000   0.000000000000   0.000000000000
				   0.000000000000   0.000000000000   0.000000000000
				   0.000000000000   0.000000000000   0.000000000000
				   0.000000000000   0.000000000000   0.000000000000
				   0.000000000000   0.000000000000   0.000000000000
				   0.000000000000   0.000000000000   0.000000000000
				   0.000000000000   0.000000000000   0.000000000000
				   0.000000000000   0.000000000000   0.000000000000
				   0.000000000000   0.000000000000   0.000000000000
				   0.000000000000   0.000000000000   0.000000000000
				   0.000000000000   0.000000000000   0.000000000000
				   0.000000000000   0.000000000000   0.000000000000
				   0.000000000000   0.000000000000   0.000000000000
				   0.000000000000   0.000000000000   0.000000000000
				   0.000000000000   0.000000000000   0.000000000000
				   0.000000000000   0.000000000000   0.000000000000
				   0.000000000000   0.000000000000   0.000000000000
				   0.000000000000   0.000000000000   0.000000000000
				   0.000000000000   0.000000000000   0.000000000000
				   0.000000000000   0.000000000000   0.000000000000
				   0.000000000000   0.000000000000   0.000000000000
				   0.000000000000   0.000000000000   0.000000000000
				   0.000000000000   0.000000000000   0.000000000000
				   0.000000000000   0.000000000000   0.000000000000
				   0.000000000000   0.000000000000   0.000000000000
				   -0.000004432155   -0.000004165173   0.000000000000
				   -0.000052044439   0.000017713621   0.000000000000
				   -0.000118596981   0.000036557485   0.000000000000
				   -0.000216069884   0.000051161256   0.000000000000
				   -0.000340775067   0.000061813646   0.000000000000
				   -0.000491791884   0.000069268686   0.000000000000
				   -0.000664365333   0.000073879747   0.000000000000
				   -0.000861720269   0.000076508502   0.000000000000
				   -0.001083677922   0.000076795233   0.000000000000
				   -0.001329456333   0.000074600915   0.000000000000
				   -0.001595475131   0.000071076813   0.000000000000
				   -0.001879557200   0.000066890631   0.000000000000
				   -0.002178782186   0.000062421997   0.000000000000
				   -0.002493192199   0.000057479115   0.000000000000
				   -0.002815895505   0.000051620310   0.000000000000
				   -0.003139553218   0.000043950906   0.000000000000
				   -0.003458425272   0.000033431968   0.000000000000
				   -0.003760341037   0.000019566650   0.000000000000
				   -0.004027171734   0.000002024783   0.000000000000
				   -0.004231942531   -0.000019786802   0.000000000000
				   -0.004332679510   -0.000040403230   0.000000000000
				   -0.004308557140   -0.000056001095   0.000000000000
				   -0.004171961011   -0.000069593680   0.000000000000
				   -0.003944581603   -0.000080670219   0.000000000000
				   -0.003648822317   -0.000088957301   0.000000000000
				   -0.003306400041   -0.000094769010   0.000000000000
				   -0.002934242728   -0.000097288834   0.000000000000
				   -0.002543608186   -0.000096288742   0.000000000000
				   -0.002145710362   -0.000092018766   0.000000000000
				   -0.001749248001   -0.000085733949   0.000000000000
				   -0.001368402688   -0.000078167100   0.000000000000
				   -0.001007353388   -0.000069623759   0.000000000000
				   -0.000675590512   -0.000057524326   0.000000000000
				   -0.000389813698   -0.000041162498   0.000000000000
				   -0.000171931344   -0.000023300758   0.000000000000
				   -0.000030821296   -0.000006163510   0.000000000000
				   0.000035268833   0.000009888758   0.000000000000
				   0.000030611951   0.000024402607   0.000000000000
				   -0.000026899398   0.000032270718   0.000000000000
				   0.000000000000   0.000000000000   0.000000000000
				   0.000000000000   0.000000000000   0.000000000000
				   -0.000004722481   -0.000015158090   0.000000000000
				   -0.000099164896   0.000022990608   0.000000000000
				   -0.000232938090   0.000070318968   0.000000000000
				   -0.000418919693   0.000115932811   0.000000000000
				   -0.000655380330   0.000153456646   0.000000000000
				   -0.000944078440   0.000181989724   0.000000000000
				   -0.001276737735   0.000200194080   0.000000000000
				   -0.001656129093   0.000209567881   0.000000000000
				   -0.002079074364   0.000211036821   0.000000000000
				   -0.002543947865   0.000206042412   0.000000000000
				   -0.003044215122   0.000196777842   0.000000000000
				   -0.003576725018   0.000184420487   0.000000000000
				   -0.004135634404   0.000169465999   0.000000000000
				   -0.004721782154   0.000151488604   0.000000000000
				   -0.005323596483   0.000129493491   0.000000000000
				   -0.005927517764   0.000101250344   0.000000000000
				   -0.006520718622   0.000064312705   0.000000000000
				   -0.007078922875   0.000017095713   0.000000000000
				   -0.007569081548   -0.000043208128   0.000000000000
				   -0.007941928116   -0.000118809810   0.000000000000
				   -0.008119094798   -0.000196553275   0.000000000000
				   -0.008065521921   -0.000265309874   0.000000000000
				   -0.007806932870   -0.000329542070   0.000000000000
				   -0.007382388581   -0.000387634805   0.000000000000
				   -0.006831349825   -0.000436980549   0.000000000000
				   -0.006191090659   -0.000477074544   0.000000000000
				   -0.005493896615   -0.000506585243   0.000000000000
				   -0.004765029438   -0.000525289043   0.000000000000
				   -0.004028043828   -0.000533813437   0.000000000000
				   -0.003298758691   -0.000533481794   0.000000000000
				   -0.002604156363   -0.000523471177   0.000000000000
				   -0.001954565197   -0.000503772748   0.000000000000
				   -0.001367437695   -0.000472184532   0.000000000000
				   -0.000865623934   -0.000427347064   0.000000000000
				   -0.000475666132   -0.000370321737   0.000000000000
				   -0.000206577479   -0.000301842883   0.000000000000
				   -0.000053617019   -0.000222573433   0.000000000000
				   -0.000006929815   -0.000139032132   0.000000000000
				   -0.000050489713   -0.000059174650   0.000000000000
				   0.000000000000   0.000000000000   0.000000000000
				   0.000000000000   0.000000000000   0.000000000000
				   -0.000012940836   0.000012214702   0.000000000000
				   -0.000150784623   0.000089349812   0.000000000000
				   -0.000351703398   0.000180315975   0.000000000000
				   -0.000623374893   0.000270386572   0.000000000000
				   -0.000963262021   0.000347119126   0.000000000000
				   -0.001374669068   0.000407024633   0.000000000000
				   -0.001847447666   0.000446793014   0.000000000000
				   -0.002385492222   0.000468413993   0.000000000000
				   -0.002984147632   0.000474077955   0.000000000000
				   -0.003641033044   0.000466920306   0.000000000000
				   -0.004346861418   0.000450471154   0.000000000000
				   -0.005097583872   0.000426822400   0.000000000000
				   -0.005884257330   0.000396788248   0.000000000000
				   -0.006707572007   0.000359502984   0.000000000000
				   -0.007551307637   0.000313135309   0.000000000000
				   -0.008396316786   0.000253966135   0.000000000000
				   -0.009223410769   0.000177158574   0.000000000000
				   -0.009997846662   0.000078104950   0.000000000000
				   -0.010673441431   -0.000048491166   0.000000000000
				   -0.011180932536   -0.000204530533   0.000000000000
				   -0.011411916671   -0.000369467325   0.000000000000
				   -0.011323401195   -0.000524781448   0.000000000000
				   -0.010953470339   -0.000672836150   0.000000000000
				   -0.010355480548   -0.000808525542   0.000000000000
				   -0.009584293347   -0.000926963069   0.000000000000
				   -0.008689698273   -0.001026327494   0.000000000000
				   -0.007715933201   -0.001103698489   0.000000000000
				   -0.006699917848   -0.001158620370   0.000000000000
				   -0.005676051680   -0.001191900572   0.000000000000
				   -0.004665603929   -0.001204400501   0.000000000000
				   -0.003706421614   -0.001193239754   0.000000000000
				   -0.002813202793   -0.001156778605   0.000000000000
				   -0.002009991332   -0.001091733603   0.000000000000
				   -0.001325652888   -0.000995737415   0.000000000000
				   -0.000789540314   -0.000869522027   0.000000000000
				   -0.000408726141   -0.000715480591   0.000000000000
				   -0.000173944020   -0.000538113000   0.000000000000
				   -0.000068860395   -0.000352603985   0.000000000000
				   -0.000075516716   -0.000179292900   0.000000000000
				   0.000000000000   0.000000000000   0.000000000000
				   0.000000000000   0.000000000000   0.000000000000
				   -0.000023872785   0.000077718761   0.000000000000
				   -0.000199472205   0.000220531476   0.000000000000
				   -0.000461375369   0.000374103102   0.000000000000
				   -0.000811545765   0.000522941367   0.000000000000
				   -0.001245186648   0.000650788583   0.000000000000
				   -0.001765976460   0.000751992586   0.000000000000
				   -0.002361491321   0.000821330599   0.000000000000
				   -0.003036660126   0.000861157267   0.000000000000
				   -0.003786024453   0.000874637784   0.000000000000
				   -0.004607040539   0.000866677166   0.000000000000
				   -0.005488339438   0.000842429693   0.000000000000
				   -0.006425025441   0.000805254578   0.000000000000
				   -0.007405180263   0.000756506476   0.000000000000
				   -0.008428911462   0.000694814320   0.000000000000
				   -0.009475805057   0.000617157048   0.000000000000
				   -0.010521925393   0.000517470114   0.000000000000
				   -0.011542391279   0.000387801399   0.000000000000
				   -0.012493100943   0.000221173937   0.000000000000
				   -0.013316604437   0.000009664867   0.000000000000
				   -0.013927024431   -0.000251335505   0.000000000000
				   -0.014192044286   -0.000534212360   0.000000000000
				   -0.014064850634   -0.000808222310   0.000000000000
				   -0.013594922496   -0.001071242561   0.000000000000
				   -0.012847310866   -0.001314951673   0.000000000000
				   -0.011889504181   -0.001530272707   0.000000000000
				   -0.010781388884   -0.001712666435   0.000000000000
				   -0.009577471690   -0.001858107642   0.000000000000
				   -0.008324507851   -0.001965828390   0.000000000000
				   -0.007065537005   -0.002035847877   0.000000000000
				   -0.005825732653   -0.002067903944   0.000000000000
				   -0.004651969697   -0.002056894784   0.000000000000
				   -0.003562110536   -0.001999230978   0.000000000000
				   -0.002584006581   -0.001890190364   0.000000000000
				   -0.001749369222   -0.001726775264   0.000000000000
				   -0.001088379985   -0.001510669774   0.000000000000
				   -0.000606584929   -0.001247588066   0.000000000000
				   -0.000292943650   -0.000947088876   0.000000000000
				   -0.000129765006   -0.000629526500   0.000000000000
				   -0.000096688049   -0.000328666495   0.000000000000
				   0.000000000000   0.000000000000   0.000000000000
				   0.000000000000   0.000000000000   0.000000000000
				   -0.000034901870   0.000186547261   0.000000000000
				   -0.000242627716   0.000423223048   0.000000000000
				   -0.000557810341   0.000660192089   0.000000000000
				   -0.000977282566   0.000882433937   0.000000000000
				   -0.001493238551   0.001072621179   0.000000000000
				   -0.002108703099   0.001224173539   0.000000000000
				   -0.002808918579   0.001330243664   0.000000000000
				   -0.003599851393   0.001393484369   0.000000000000
				   -0.004475469552   0.001417886374   0.000000000000
				   -0.005433301989   0.001410197164   0.000000000000
				   -0.006460400897   0.001377431357   0.000000000000
				   -0.007551168193   0.001324479972   0.000000000000
				   -0.008691054307   0.001253388901   0.000000000000
				   -0.009879488159   0.001161963247   0.000000000000
				   -0.011092539399   0.001045496728   0.000000000000
				   -0.012302047389   0.000895797601   0.000000000000
				   -0.013477955806   0.000702283450   0.000000000000
				   -0.014568608212   0.000454205227   0.000000000000
				   -0.015507563442   0.000138536594   0.000000000000
				   -0.016194785072   -0.000252026151   0.000000000000
				   -0.016479017471   -0.000680857045   0.000000000000
				   -0.016313083719   -0.001103998777   0.000000000000
				   -0.015756493315   -0.001513136574   0.000000000000
				   -0.014882808055   -0.001893197114   0.000000000000
				   -0.013769836314   -0.002229922657   0.000000000000
				   -0.012485991422   -0.002517082076   0.000000000000
				   -0.011094209609   -0.002749031996   0.000000000000
				   -0.009649351446   -0.002923814051   0.000000000000
				   -0.008201377971   -0.003040452311   0.000000000000
				   -0.006778043812   -0.003097422052   0.000000000000
				   -0.005432918492   -0.003087271399   0.000000000000
				   -0.004185917989   -0.003004553400   0.000000000000
				   -0.003067352031   -0.002843162023   0.000000000000
				   -0.002110420459   -0.002599833277   0.000000000000
				   -0.001345607215   -0.002278278261   0.000000000000
				   -0.000777710613   -0.001888045854   0.000000000000
				   -0.000395241253   -0.001443322994   0.000000000000
				   -0.000180689378   -0.000967440279   0.000000000000
				   -0.000111006428   -0.000504479692   0.000000000000
				   0.000000000000   0.000000000000   0.000000000000
				   0.000000000000   0.000000000000   0.000000000000
				   -0.000045358160   0.000340872603   0.000000000000
				   -0.000279395800   0.000701993763   0.000000000000
				   -0.000639473730   0.001046675901   0.000000000000
				   -0.001118280022   0.001359774593   0.000000000000
				   -0.001704855042   0.001625245835   0.000000000000
				   -0.002401020437   0.001836985043   0.000000000000
				   -0.003189743829   0.001986839808   0.000000000000
				   -0.004077666687   0.002078192156   0.000000000000
				   -0.005058102798   0.002116033416   0.000000000000
				   -0.006128751691   0.002109135542   0.000000000000
				   -0.007275500248   0.002066579350   0.000000000000
				   -0.008492270886   0.001994940206   0.000000000000
				   -0.009762420810   0.001896950719   0.000000000000
				   -0.011084778043   0.001769497757   0.000000000000
				   -0.012432400473   0.001606413152   0.000000000000
				   -0.013773660730   0.001397161216   0.000000000000
				   -0.015074548554   0.001126885775   0.000000000000
				   -0.016277237419   0.000780235507   0.000000000000
				   -0.017307432543   0.000340107627   0.000000000000
				   -0.018053627837   -0.000205161072   0.000000000000
				   -0.018350122048   -0.000811834469   0.000000000000
				   -0.018150092344   -0.001417990768   0.000000000000
				   -0.017520493276   -0.002004288697   0.000000000000
				   -0.016541661071   -0.002549306144   0.000000000000
				   -0.015300123335   -0.003033786071   0.000000000000
				   -0.013871145740   -0.003448128666   0.000000000000
				   -0.012324911926   -0.003784446045   0.000000000000
				   -0.010723407149   -0.004039892484   0.000000000000
				   -0.009122183517   -0.004212342021   0.000000000000
				   -0.007550788314   -0.004298880152   0.000000000000
				   -0.006067866255   -0.004289799233   0.000000000000
				   -0.004694447163   -0.004178016747   0.000000000000
				   -0.003462181143   -0.003956228556   0.000000000000
				   -0.002404964197   -0.003621136386   0.000000000000
				   -0.001553818706   -0.003178763884   0.000000000000
				   -0.000913997008   -0.002642236260   0.000000000000
				   -0.000474429117   -0.002029327007   0.000000000000
				   -0.000218122970   -0.001366374520   0.000000000000
				   -0.000118556834   -0.000704302264   0.000000000000
				   0.000000000000   0.000000000000   0.000000000000
				   0.000000000000   0.000000000000   0.000000000000
				   -0.000054029238   0.000536051778   0.000000000000
				   -0.000308801279   0.001050592628   0.000000000000
				   -0.000704499754   0.001526270813   0.000000000000
				   -0.001230827083   0.001947466625   0.000000000000
				   -0.001874271492   0.002300539783   0.000000000000
				   -0.002635638790   0.002581025598   0.000000000000
				   -0.003495853928   0.002780101422   0.000000000000
				   -0.004461717357   0.002902728235   0.000000000000
				   -0.005525752594   0.002955281979   0.000000000000
				   -0.006685782810   0.002948808707   0.000000000000
				   -0.007926843039   0.002894657869   0.000000000000
				   -0.009242636850   0.002801182235   0.000000000000
				   -0.010615013122   0.002671902592   0.000000000000
				   -0.012042434100   0.002502779781   0.000000000000
				   -0.013495872937   0.002285682570   0.000000000000
				   -0.014941330387   0.002006940119   0.000000000000
				   -0.016341603785   0.001647764322   0.000000000000
				   -0.017633924967   0.001188577779   0.000000000000
				   -0.018738502304   0.000605545688   0.000000000000
				   -0.019535013910   -0.000119678785   0.000000000000
				   -0.019844946477   -0.000932851653   0.000000000000
				   -0.019620705254   -0.001750260680   0.000000000000
				   -0.018935060549   -0.002542169355   0.000000000000
				   -0.017872950241   -0.003279348115   0.000000000000
				   -0.016527442582   -0.003934821444   0.000000000000
				   -0.014980001152   -0.004495685440   0.000000000000
				   -0.013307514508   -0.004952064401   0.000000000000
				   -0.011578180708   -0.005299647661   0.000000000000
				   -0.009852281744   -0.005535042327   0.000000000000
				   -0.008160899035   -0.005654303810   0.000000000000
				   -0.006566691994   -0.005645718758   0.000000000000
				   -0.005091375774   -0.005500830929   0.000000000000
				   -0.003767432124   -0.005211341161   0.000000000000
				   -0.002629107864   -0.004774027143   0.000000000000
				   -0.001708241096   -0.004197209404   0.000000000000
				   -0.001011309577   -0.003497144581   0.000000000000
				   -0.000527793263   -0.002694019945   0.000000000000
				   -0.000241028407   -0.001818823163   0.000000000000
				   -0.000121120808   -0.000925926612   0.000000000000
				   0.000000000000   0.000000000000   0.000000000000
				   0.000000000000   0.000000000000   0.000000000000
				   -0.000061236150   0.000766625636   0.000000000000
				   -0.000332195808   0.001464778162   0.000000000000
				   -0.000755235404   0.002096155840   0.000000000000
				   -0.001318241817   0.002644712647   0.000000000000
				   -0.002006132101   0.003099187840   0.000000000000
				   -0.002819060677   0.003457807502   0.000000000000
				   -0.003736164873   0.003711811333   0.000000000000
				   -0.004764109898   0.003868666620   0.000000000000
				   -0.005894515571   0.003936710085   0.000000000000
				   -0.007125197946   0.003929721317   0.000000000000
				   -0.008440553014   0.003861634715   0.000000000000
				   -0.009834310108   0.003742738866   0.000000000000
				   -0.011287438440   0.003577327512   0.000000000000
				   -0.012798548440   0.003360040066   0.000000000000
				   -0.014337328263   0.003080604898   0.000000000000
				   -0.015868124256   0.002722582486   0.000000000000
				   -0.017351770288   0.002262541095   0.000000000000
				   -0.018722453103   0.001674483784   0.000000000000
				   -0.019896108850   0.000927496323   0.000000000000
				   -0.020744708810   -0.000002648042   0.000000000000
				   -0.021077734029   -0.001051959003   0.000000000000
				   -0.020844597791   -0.002113596507   0.000000000000
				   -0.020120755035   -0.003143504380   0.000000000000
				   -0.018993679955   -0.004102349520   0.000000000000
				   -0.017562232803   -0.004955487264   0.000000000000
				   -0.015913798878   -0.005685914019   0.000000000000
				   -0.014131731575   -0.006280363341   0.000000000000
				   -0.012290592899   -0.006732885944   0.000000000000
				   -0.010455492789   -0.007039164107   0.000000000000
				   -0.008659292174   -0.007194578536   0.000000000000
				   -0.006968375425   -0.007185600662   0.000000000000
				   -0.005405185758   -0.007002704359   0.000000000000
				   -0.004003003549   -0.006636731905   0.000000000000
				   -0.002796406321   -0.006084552742   0.000000000000
				   -0.001818146550   -0.005356725564   0.000000000000
				   -0.001076086927   -0.004472529368   0.000000000000
				   -0.000560086702   -0.003453807861   0.000000000000
				   -0.000253155988   -0.002338067587   0.000000000000
				   -0.000122251536   -0.001181540109   0.000000000000
				   0.000000000000   0.000000000000   0.000000000000
				   0.000000000000   0.000000000000   0.000000000000
				   -0.000067772903   0.001025095637   0.000000000000
				   -0.000350856862   0.001934885841   0.000000000000
				   -0.000793957498   0.002745190448   0.000000000000
				   -0.001384139580   0.003439763929   0.000000000000
				   -0.002105587188   0.004009314742   0.000000000000
				   -0.002958190874   0.004455467251   0.000000000000
				   -0.003919717431   0.004770045276   0.000000000000
				   -0.004996589991   0.004963908580   0.000000000000
				   -0.006179480705   0.005048047682   0.000000000000
				   -0.007466074421   0.005039559930   0.000000000000
				   -0.008840309438   0.004955364892   0.000000000000
				   -0.010296228206   0.004807809555   0.000000000000
				   -0.011814567327   0.004601886538   0.000000000000
				   -0.013394500355   0.004330927477   0.000000000000
				   -0.015005165518   0.003982534632   0.000000000000
				   -0.016610521774   0.003536597319   0.000000000000
				   -0.018170794942   0.002964039465   0.000000000000
				   -0.019617938459   0.002232980365   0.000000000000
				   -0.020864812380   0.001304685736   0.000000000000
				   -0.021777564410   0.000145405995   0.000000000000
				   -0.022152286501   -0.001170876709   0.000000000000
				   -0.021930360053   -0.002509323964   0.000000000000
				   -0.021187182867   -0.003810368052   0.000000000000
				   -0.020011421635   -0.005024178723   0.000000000000
				   -0.018506497337   -0.006105507394   0.000000000000
				   -0.016765860380   -0.007031170453   0.000000000000
				   -0.014880339398   -0.007783893556   0.000000000000
				   -0.012931857651   -0.008355852609   0.000000000000
				   -0.010991186079   -0.008741840029   0.000000000000
				   -0.009093848096   -0.008937050806   0.000000000000
				   -0.007310443277   -0.008926458634   0.000000000000
				   -0.005664510602   -0.008699791781   0.000000000000
				   -0.004190284564   -0.008247102861   0.000000000000
				   -0.002922642158   -0.007565303750   0.000000000000
				   -0.001895051115   -0.006667244913   0.000000000000
				   -0.001116339279   -0.005575483288   0.000000000000
				   -0.000576212802   -0.004313542513   0.000000000000
				   -0.000256804975   -0.002926947017   0.000000000000
				   -0.000121950401   -0.001476030288   0.000000000000
				   0.000000000000   0.000000000000   0.000000000000
				   0.000000000000   0.000000000000   0.000000000000
				   -0.000074741601   0.001309616462   0.000000000000
				   -0.000366897638   0.002458537547   0.000000000000
				   -0.000824756767   0.003471557490   0.000000000000
				   -0.001435134846   0.004331795099   0.000000000000
				   -0.002182106016   0.005031389949   0.000000000000
				   -0.003065690742   0.005575736165   0.000000000000
				   -0.004062742814   0.005957543556   0.000000000000
				   -0.005179466708   0.006191927162   0.000000000000
				   -0.006405614948   0.006293293165   0.000000000000
				   -0.007738687583   0.006282770048   0.000000000000
				   -0.009162386678   0.006180721179   0.000000000000
				   -0.010671352318   0.006001780370   0.000000000000
				   -0.012246566167   0.005751784287   0.000000000000
				   -0.013888285184   0.005422661385   0.000000000000
				   -0.015566099742   0.004999286181   0.000000000000
				   -0.017244533282   0.004457621132   0.000000000000
				   -0.018884036877   0.003763129372   0.000000000000
				   -0.020415813822   0.002876419151   0.000000000000
				   -0.021751228897   0.001748189489   0.000000000000
				   -0.022750825304   0.000334474464   0.000000000000
				   -0.023194024056   -0.001280432337   0.000000000000
				   -0.023008609315   -0.002933203701   0.000000000000
				   -0.022266455065   -0.004546898148   0.000000000000
				   -0.021054960336   -0.006057033276   0.000000000000
				   -0.019481509633   -0.007404595483   0.000000000000
				   -0.017646893456   -0.008558514696   0.000000000000
				   -0.015651174319   -0.009495636017   0.000000000000
				   -0.013585735369   -0.010205397155   0.000000000000
				   -0.011529087314   -0.010681908426   0.000000000000
				   -0.009520974288   -0.010920776062   0.000000000000
				   -0.007637459443   -0.010905838737   0.000000000000
				   -0.005903726295   -0.010626541534   0.000000000000
				   -0.004355194759   -0.010072460822   0.000000000000
				   -0.003026887896   -0.009240814794   0.000000000000
				   -0.001952532681   -0.008147258576   0.000000000000
				   -0.001141112836   -0.006818391127   0.000000000000
				   -0.000581373028   -0.005280391955   0.000000000000
				   -0.000253898951   -0.003587816848   0.000000000000
				   -0.000118991975   -0.001809104287   0.000000000000
				   0.000000000000   0.000000000000   0.000000000000
				   0.000000000000   0.000000000000   0.000000000000
				   -0.000081700643   0.001618732245   0.000000000000
				   -0.000381096206   0.003032727844   0.000000000000
				   -0.000850698416   0.004271474944   0.000000000000
				   -0.001477241939   0.005316747809   0.000000000000
				   -0.002245032442   0.006161621994   0.000000000000
				   -0.003154540860   0.006815425487   0.000000000000
				   -0.004182086146   0.007271872863   0.000000000000
				   -0.005333761824   0.007551084793   0.000000000000
				   -0.006598515418   0.007671594496   0.000000000000
				   -0.007973745063   0.007659275328   0.000000000000
				   -0.009443138788   0.007538489823   0.000000000000
				   -0.011002175105   0.007326553827   0.000000000000
				   -0.012632542720   0.007030249876   0.000000000000
				   -0.014336226550   0.006639967290   0.000000000000
				   -0.016083935516   0.006137866521   0.000000000000
				   -0.017841595990   0.005495790961   0.000000000000
				   -0.019571465506   0.004672325371   0.000000000000
				   -0.021205370092   0.003619192953   0.000000000000
				   -0.022653704253   0.002275944516   0.000000000000
				   -0.023772003477   0.000585217097   0.000000000000
				   -0.024319343256   -0.001362170824   0.000000000000
				   -0.024201830636   -0.003372149469   0.000000000000
				   -0.023482857759   -0.005346495913   0.000000000000
				   -0.022246226418   -0.007203079487   0.000000000000
				   -0.020602738792   -0.008864993172   0.000000000000
				   -0.018661940903   -0.010289131606   0.000000000000
				   -0.016536114230   -0.011443509184   0.000000000000
				   -0.014329844574   -0.012313733258   0.000000000000
				   -0.012132728636   -0.012893261571   0.000000000000
				   -0.009991060580   -0.013178869198   0.000000000000
				   -0.007988392890   -0.013154016251   0.000000000000
				   -0.006152209787   -0.012808782351   0.000000000000
				   -0.004519280092   -0.012133029264   0.000000000000
				   -0.003124434157   -0.011125112141   0.000000000000
				   -0.002000968503   -0.009804718325   0.000000000000
				   -0.001156944245   -0.008203780464   0.000000000000
				   -0.000579304566   -0.006352898570   0.000000000000
				   -0.000246341905   -0.004317256334   0.000000000000
				   -0.000113581989   -0.002176796601   0.000000000000
				   0.000000000000   0.000000000000   0.000000000000
				   0.000000000000   0.000000000000   0.000000000000
				   -0.000088655770   0.001956018137   0.000000000000
				   -0.000394866385   0.003662867091   0.000000000000
				   -0.000875372153   0.005151889212   0.000000000000
				   -0.001516851003   0.006403178274   0.000000000000
				   -0.002304036411   0.007410263352   0.000000000000
				   -0.003238131495   0.008186490078   0.000000000000
				   -0.004295139045   0.008726553125   0.000000000000
				   -0.005481217361   0.009056236864   0.000000000000
				   -0.006784636351   0.009198873521   0.000000000000
				   -0.008202813284   0.009185898358   0.000000000000
				   -0.009719624850   0.009046376165   0.000000000000
				   -0.011331670255   0.008800798178   0.000000000000
				   -0.013021747191   0.008457148928   0.000000000000
				   -0.014794101817   0.008004502242   0.000000000000
				   -0.016621324971   0.007422079618   0.000000000000
				   -0.018472035361   0.006676769130   0.000000000000
				   -0.020311654135   0.005719721067   0.000000000000
				   -0.022073724640   0.004492901822   0.000000000000
				   -0.023669278647   0.002921409105   0.000000000000
				   -0.024949899414   0.000929576050   0.000000000000
				   -0.025648535975   -0.001388568057   0.000000000000
				   -0.025639290010   -0.003807232357   0.000000000000
				   -0.024971058407   -0.006204403747   0.000000000000
				   -0.023719965759   -0.008475242036   0.000000000000
				   -0.021998593799   -0.010517555488   0.000000000000