<VTKFile type="UnstructuredGrid" version="0.1" byte_order="BigEndian">
	<UnstructuredGrid>
		<Piece NumberOfPoints="1681" NumberOfCells="3200">
			<PointData Scalars="scalars" Vectors = "Velocity">
				<DataArray type="Float32" Name="Velocity" NumberOfComponents="3" Format="ascii">
				   0.000000000000   0.000000000000   0.000000000000
				   0.000000000000   0.000000000000   0.000000000000
				   0.000000000000   0.000000000000   0.000000000000
				   0.000000000000   0.000000000000   0.000000000000
				   0.000000000000   0.000000000000   0.000000000000
				   0.000000000000   0.000000000000   0.000000000000
				   0.000000000000   0.000000000000   0.000000000000
				   0.000000000000   0.000000000000   0.000000000000
				   0.000000000000   0.000000000000   0.000000000000
				   0.000000000000   0.000000000000   0.000000000000
				   0.000000000000   0.000000000000   0.000000000000
				   0.000000000000   0.000000000000   0.000000000000
				   0.000000000000   0.000000000000   0.000000000000
				   0.000000000000   0.000000000000   0.000000000000
				   0.000000000000   0.000000000000   0.000000000000
				   0.000000000000   0.000000000000   0.000000000000
				   0.000000000000   0.000000000000   0.000000000000
				   0.000000000000   0.000000000000   0.000000000000
				   0.000000000000   0.000000000000   0.000000000000
				   0.000000000000   0.000000000000   0.000000000000
				   0.000000000000   0.000000000000   0.000000000000
				   0.000000000000   0.000000000000   0.000000000000
				   0.000000000000   0.000000000000   0.000000000000
				   0.000000000000   0.000000000000   0.000000000000
				   0.000000000000   0.000000000000   0.000000000000
				   0.000000000000   0.000000000000   0.000000000000
				   0.000000000000   0.000000000000   0.000000000000
				   0.000000000000   0.000000000000   0.000000000000
				   0.000000000000   0.000000000000   0.000000000000
				   0.000000000000   0.000000000000   0.000000000000
				   0.000000000000   0.000000000000   0.000000000000
				   0.000000000000   0.000000000000   0.000000000000
				   0.000000000000   0.000000000000   0.000000000000
				   0.000000000000   0.000000000000   0.000000000000
				   0.000000000000   0.000000000000   0.000000000000
				   0.000000000000   0.000000000000   0.000000000000
				   0.000000000000   0.000000000000   0.000000000000
				   0.000000000000   0.000000000000   0.000000000000
				   0.000000000000   0.000000000000   0.000000000000
				   0.000000000000   0.000000000000   0.000000000000
				   0.000000000000   0.000000000000   0.000000000000
				   0.000000000000   0.000000000000   0.000000000000
				   -0.002764358121   -0.002852211491   0.000000000000
				   -0.002064020662   -0.001203637203   0.000000000000
				   -0.001191968241   -0.000534784189   0.000000000000
				   -0.000647770018   -0.000319060650   0.000000000000
				   -0.000385086488   -0.000228697185   0.000000000000
				   -0.000307896513   -0.000173883283   0.000000000000
				   -0.000381000567   -0.000136392114   0.000000000000
				   -0.000587398168   -0.000104665271   0.000000000000
				   -0.000934424364   -0.000075143874   0.000000000000
				   -0.001440347551   -0.000041999504   0.000000000000
				   -0.002140958422   -0.000002880167   0.000000000000
				   -0.003088911089   0.000045430028   0.000000000000
				   -0.004350184315   0.000103483155   0.000000000000
				   -0.006017887545   0.000173376670   0.000000000000
				   -0.008159653190   0.000248914181   0.000000000000
				   -0.010810791911   0.000317473766   0.000000000000
				   -0.013926928407   0.000356539967   0.000000000000
				   -0.017265876152   0.000326025542   0.000000000000
				   -0.020322562553   0.000179888213   0.000000000000
				   -0.022190606648   -0.000140527145   0.000000000000
				   -0.021829390571   -0.000582272361   0.000000000000
				   -0.019086727479   -0.000979991634   0.000000000000
				   -0.014630819427   -0.001252234790   0.000000000000
				   -0.009393432654   -0.001350717417   0.000000000000
				   -0.004309084044   -0.001270456154   0.000000000000
				   -0.000047816538   -0.001061386154   0.000000000000
				   0.003044206416   -0.000789077816   0.000000000000
				   0.004934297606   -0.000518081163   0.000000000000
				   0.005797696035   -0.000289154893   0.000000000000
				   0.005894975188   -0.000110586604   0.000000000000
				   0.005479611126   0.000010037181   0.000000000000
				   0.004765670196   0.000086329648   0.000000000000
				   0.003909374961   0.000127900817   0.000000000000
				   0.003020878290   0.000142239331   0.000000000000
				   0.002182642936   0.000133670314   0.000000000000
				   0.001446637622   0.000104549545   0.000000000000
				   0.000848481423   0.000054839617   0.000000000000
				   0.000415888863   -0.000010346341   0.000000000000
				   0.000135066078   -0.000062990612   0.000000000000
				   0.000000000000   0.000000000000   0.000000000000
				   0.000000000000   0.000000000000   0.000000000000
				   -0.001104914259   -0.002290691244   0.000000000000
				   -0.001556949747   -0.001856446868   0.000000000000
				   -0.001358335738   -0.001244932322   0.000000000000
				   -0.001062840756   -0.000842283518   0.000000000000
				   -0.000898185616   -0.000572444359   0.000000000000
				   -0.000940413508   -0.000374781511   0.000000000000
				   -0.001206362080   -0.000217653401   0.000000000000
				   -0.001720558675   -0.000081367065   0.000000000000
				   -0.002504972037   0.000050484708   0.000000000000
				   -0.003614705293   0.000192332656   0.000000000000
				   -0.005116171436   0.000355461928   0.000000000000
				   -0.007118398575   0.000549378979   0.000000000000
				   -0.009738556398   0.000774210043   0.000000000000
				   -0.013146154069   0.001030014922   0.000000000000
				   -0.017443396829   0.001289243406   0.000000000000
				   -0.022651363556   0.001504140668   0.000000000000
				   -0.028622070410   0.001588883555   0.000000000000
				   -0.034825468002   0.001417893081   0.000000000000
				   -0.040267058667   0.000847508997   0.000000000000
				   -0.043318819558   -0.000247058380   0.000000000000
				   -0.042232832645   -0.001702536580   0.000000000000
				   -0.036930536654   -0.003056643839   0.000000000000
				   -0.028702572011   -0.004013125688   0.000000000000
				   -0.019174150034   -0.004408590201   0.000000000000
				   -0.009925740979   -0.004222023327   0.000000000000
				   -0.002075927454   -0.003588179086   0.000000000000
				   0.003770336775   -0.002710740277   0.000000000000
				   0.007523506600   -0.001789692407   0.000000000000
				   0.009442634530   -0.000970674615   0.000000000000
				   0.009954937218   -0.000304032081   0.000000000000
				   0.009480462955   0.000175126366   0.000000000000
				   0.008401776273   0.000496493929   0.000000000000
				   0.007003111717   0.000684794187   0.000000000000
				   0.005498292336   0.000764427541   0.000000000000
				   0.004043943207   0.000749930069   0.000000000000
				   0.002743761468   0.000650985857   0.000000000000
				   0.001658464590   0.000475100082   0.000000000000
				   0.000835308309   0.000245514094   0.000000000000
				   0.000264152468   0.000036833860   0.000000000000
				   0.000000000000   0.000000000000   0.000000000000
				   0.000000000000   0.000000000000   0.000000000000
				   -0.000451359089   -0.001597135067   0.000000000000
				   -0.001007948888   -0.001856708116   0.000000000000
				   -0.001245908486   -0.001567493056   0.000000000000
				   -0.001343568099   -0.001157894172   0.000000000000
				   -0.001500963534   -0.000760469617   0.000000000000
				   -0.001845963620   -0.000393656429   0.000000000000
				   -0.002458258491   -0.000064505663   0.000000000000
				   -0.003402456166   0.000247309836   0.000000000000
				   -0.004743488860   0.000560041900   0.000000000000
				   -0.006571196690   0.000901360845   0.000000000000
				   -0.008996570337   0.001291747510   0.000000000000
				   -0.012176959641   0.001747750204   0.000000000000
				   -0.016275407677   0.002267816791   0.000000000000
				   -0.021514658631   0.002836488182   0.000000000000
				   -0.027997089300   0.003389084067   0.000000000000
				   -0.035677671512   0.003804622798   0.000000000000
				   -0.044245738362   0.003895287995   0.000000000000
				   -0.052852074401   0.003398032122   0.000000000000
				   -0.060056908413   0.002042667314   0.000000000000
				   -0.063717869741   -0.000350197228   0.000000000000
				   -0.061702709873   -0.003414400968   0.000000000000
				   -0.054157809745   -0.006257151255   0.000000000000
				   -0.042877133689   -0.008268347385   0.000000000000
				   -0.029932540856   -0.009141516310   0.000000000000
				   -0.017299140168   -0.008834408588   0.000000000000
				   -0.006389115325   -0.007599253824   0.000000000000
				   0.001986482546   -0.005824805268   0.000000000000
				   0.007639848743   -0.003910572521   0.000000000000
				   0.010838710018   -0.002154314196   0.000000000000
				   0.012090900290   -0.000690062716   0.000000000000
				   0.011916956778   0.000402262062   0.000000000000
				   0.010820307554   0.001158005956   0.000000000000
				   0.009194661848   0.001622714288   0.000000000000
				   0.007340699732   0.001841871679   0.000000000000
				   0.005487688373   0.001849078216   0.000000000000
				   0.003784897151   0.001670749549   0.000000000000
				   0.002322080694   0.001329216790   0.000000000000
				   0.001172027691   0.000868616871   0.000000000000
				   0.000360040494   0.000380225995   0.000000000000
				   0.000000000000   0.000000000000   0.000000000000
				   0.000000000000   0.000000000000   0.000000000000
				   -0.000276483317   -0.001176366952   0.000000000000
				   -0.000777075881   -0.001630527272   0.000000000000
				   -0.001235243424   -0.001528089594   0.000000000000
				   -0.001692773605   -0.001140627106   0.000000000000
				   -0.002248144647   -0.000633854532   0.000000000000
				   -0.003028393763   -0.000088645374   0.000000000000
				   -0.004117047460   0.000456302695   0.000000000000
				   -0.005624239062   0.001006699456   0.000000000000
				   -0.007643319358   0.001583659011   0.000000000000
				   -0.010314897941   0.002223852472   0.000000000000
				   -0.013786919420   0.002955806267   0.000000000000
				   -0.018268946688   0.003802623188   0.000000000000
				   -0.023952860427   0.004748170056   0.000000000000
				   -0.031092505318   0.005752495299   0.000000000000
				   -0.039750484545   0.006678452609   0.000000000000
				   -0.049764380142   0.007303482336   0.000000000000
				   -0.060620061338   0.007289338028   0.000000000000
				   -0.071152975035   0.006214155500   0.000000000000
				   -0.079583542985   0.003675384247   0.000000000000
				   -0.083487238854   -0.000515307738   0.000000000000
				   -0.080621151384   -0.005710597526   0.000000000000
				   -0.071374299592   -0.010492718395   0.000000000000
				   -0.057840624230   -0.013888472441   0.000000000000
				   -0.042296121938   -0.015435785006   0.000000000000
				   -0.026923103443   -0.015063881763   0.000000000000
				   -0.013337016384   -0.013141123363   0.000000000000
				   -0.002550702450   -0.010269489143   0.000000000000
				   0.005104947333   -0.007083723747   0.000000000000
				   0.009833023522   -0.004084311192   0.000000000000
				   0.012161642038   -0.001520588504   0.000000000000
				   0.012648137662   0.000447582781   0.000000000000
				   0.011886807250   0.001852547669   0.000000000000
				   0.010352805405   0.002752345840   0.000000000000
				   0.008426539061   0.003218300193   0.000000000000
				   0.006399579502   0.003308563204   0.000000000000
				   0.004472302901   0.003073934605   0.000000000000
				   0.002767793495   0.002556819434   0.000000000000
				   0.001396068489   0.001812624569   0.000000000000
				   0.000422631815   0.000928898318   0.000000000000
				   0.000000000000   0.000000000000   0.000000000000
				   0.000000000000   0.000000000000   0.000000000000
				   -0.000248921775   -0.000904563599   0.000000000000
				   -0.000760763157   -0.001279323714   0.000000000000
				   -0.001410130587   -0.001169652452   0.000000000000
				   -0.002206015937   -0.000714982655   0.000000000000
				   -0.003204303591   -0.000066535039   0.000000000000
				   -0.004501755372   0.000691228611   0.000000000000
				   -0.006179279398   0.001494339779   0.000000000000
				   -0.008364724258   0.002348298667   0.000000000000
				   -0.011185248004   0.003273739190   0.000000000000
				   -0.014820212114   0.004317359871   0.000000000000
				   -0.019459540495   0.005513509133   0.000000000000
				   -0.025352427629   0.006880017550   0.000000000000
				   -0.032705783076   0.008379253271   0.000000000000
				   -0.041775549241   0.009915240654   0.000000000000
				   -0.052543305969   0.011256851827   0.000000000000
				   -0.064692909353   0.012032339154   0.000000000000
				   -0.077491688188   0.011737938678   0.000000000000
				   -0.089522683468   0.009781480204   0.000000000000
				   -0.098818009085   0.005669058204   0.000000000000
				   -0.102900050687   -0.000752623910   0.000000000000
				   -0.099573895476   -0.008499501192   0.000000000000
				   -0.089351853311   -0.015595254449   0.000000000000
				   -0.074380743179   -0.020693427833   0.000000000000
				   -0.056942013594   -0.023168800118   0.000000000000
				   -0.039302229680   -0.022885175612   0.000000000000
				   -0.023254002346   -0.020300712193   0.000000000000
				   -0.010041114086   -0.016225161824   0.000000000000
				   -0.000199436394   -0.011559190865   0.000000000000
				   0.006349160496   -0.007045336763   0.000000000000
				   0.010101487154   -0.003092430544   0.000000000000
				   0.011609803334   0.000026661006   0.000000000000
				   0.011530372098   0.002318085156   0.000000000000
				   0.010405724867   0.003844790272   0.000000000000
				   0.008682480591   0.004700064073   0.000000000000
				   0.006714553995   0.004970196967   0.000000000000
				   0.004753429850   0.004735145313   0.000000000000
				   0.002965968217   0.004055287148   0.000000000000
				   0.001499079368   0.002992581612   0.000000000000
				   0.000454030316   0.001621986356   0.000000000000
				   0.000000000000   0.000000000000   0.000000000000
				   0.000000000000   0.000000000000   0.000000000000
				   -0.000275273280   -0.000611067529   0.000000000000
				   -0.000885073558   -0.000745436317   0.000000000000
				   -0.001762095749   -0.000438434888   0.000000000000
				   -0.002930519870   0.000209286169   0.000000000000
				   -0.004417345803   0.001086772088   0.000000000000
				   -0.006313887278   0.002118092191   0.000000000000
				   -0.008677831579   0.003244243079   0.000000000000
				   -0.011660669620   0.004478125446   0.000000000000
				   -0.015405374385   0.005849539865   0.000000000000
				   -0.020134946369   0.007416795220   0.000000000000
				   -0.026067076859   0.009210246059   0.000000000000
				   -0.033483292609   0.011237846653   0.000000000000
				   -0.042581891137   0.013407709155   0.000000000000
				   -0.053589156678   0.015552813789   0.000000000000
				   -0.066372077959   0.017295824398   0.000000000000
				   -0.080437291259   0.018102348235   0.000000000000
				   -0.094865149291   0.017282539451   0.000000000000
				   -0.108088646755   0.014114701215   0.000000000000
				   -0.118128539213   0.008059116298   0.000000000000
				   -0.122622862488   -0.000957228400   0.000000000000
				   -0.119461553496   -0.011619433851   0.000000000000
				   -0.109078416246   -0.021409798484   0.000000000000
				   -0.093441793234   -0.028607189708   0.000000000000
				   -0.074690462454   -0.032389691057   0.000000000000
				   -0.055096067078   -0.032491325367   0.000000000000
				   -0.036627597278   -0.029393957968   0.000000000000
				   -0.020816114566   -0.024092862488   0.000000000000
				   -0.008480443341   -0.017773434487   0.000000000000
				   0.000262450639   -0.011474900387   0.000000000000
				   0.005836670232   -0.005814472508   0.000000000000
				   0.008752017087   -0.001229633870   0.000000000000
				   0.009713921151   0.002235575056   0.000000000000
				   0.009319476453   0.004630300858   0.000000000000
				   0.008080224560   0.006065244540   0.000000000000
				   0.006409151871   0.006653596167   0.000000000000
				   0.004615432070   0.006505692395   0.000000000000
				   0.002912274759   0.005702587761   0.000000000000
				   0.001482541799   0.004309605331   0.000000000000
				   0.000453784707   0.002398514256   0.000000000000
				   0.000000000000   0.000000000000   0.000000000000
				   0.000000000000   0.000000000000   0.000000000000
				   -0.000332095852   -0.000192741210   0.000000000000
				   -0.001098081602   0.000080455251   0.000000000000
				   -0.002262791387   0.000752180275   0.000000000000
				   -0.003848065020   0.001741409767   0.000000000000
				   -0.005878193198   0.002951548628   0.000000000000
				   -0.008434431505   0.004341764913   0.000000000000
				   -0.011564589758   0.005864683429   0.000000000000
				   -0.015430485339   0.007562139081   0.000000000000
				   -0.020195739567   0.009479613748   0.000000000000
				   -0.026111919626   0.011686213699   0.000000000000
				   -0.033418757000   0.014205781877   0.000000000000
				   -0.042408919829   0.017008523654   0.000000000000
				   -0.053247566848   0.019936100369   0.000000000000
				   -0.066103073054   0.022702166111   0.000000000000
				   -0.080703911521   0.024773459618   0.000000000000
				   -0.096398230846   0.025425936482   0.000000000000
				   -0.112145453745   0.023826997354   0.000000000000
				   -0.126365864371   0.019165221420   0.000000000000
				   -0.137208218459   0.010917228152   0.000000000000
				   -0.142511922111   -0.000913996472   0.000000000000
				   -0.140202895641   -0.014738410043   0.000000000000
				   -0.130458622431   -0.027563047916   0.000000000000
				   -0.114911573605   -0.037300504658   0.000000000000
				   -0.095446372501   -0.042887205947   0.000000000000
				   -0.074246859058   -0.043835284279   0.000000000000
				   -0.053423742383   -0.040548621699   0.000000000000
				   -0.034835096023   -0.034144155776   0.000000000000
				   -0.019672606517   -0.026092986240   0.000000000000
				   -0.008339022964   -0.017783307113   0.000000000000
				   -0.000535627304   -0.010107675879   0.000000000000
				   0.004168796072   -0.003728015226   0.000000000000
				   0.006518045033   0.001223508158   0.000000000000
				   0.007160558987   0.004761416550   0.000000000000
				   0.006671618589   0.007002308535   0.000000000000
				   0.005526139262   0.008082142942   0.000000000000
				   0.004092523964   0.008144449498   0.000000000000
				   0.002633202330   0.007293324955   0.000000000000
				   0.001361784906   0.005607957980   0.000000000000
				   0.000426321864   0.003167244612   0.000000000000
				   0.000000000000   0.000000000000   0.000000000000
				   0.000000000000   0.000000000000   0.000000000000
				   -0.000409474787   0.000451016797   0.000000000000
				   -0.001383630644   0.001330273019   0.000000000000
				   -0.002891498971   0.002560437185   0.000000000000
				   -0.004956072987   0.004047462831   0.000000000000
				   -0.007586308011   0.005720916470   0.000000000000
				   -0.010870410338   0.007572713465   0.000000000000
				   -0.014836268168   0.009588620132   0.000000000000
				   -0.019666910790   0.011850576182   0.000000000000
				   -0.025533236629   0.014427572663   0.000000000000
				   -0.032714601332   0.017403169313   0.000000000000
				   -0.041452417902   0.020771972951   0.000000000000
				   -0.052031433465   0.024458101670   0.000000000000
				   -0.064557541960   0.028186415472   0.000000000000
				   -0.079114651512   0.031544558817   0.000000000000
				   -0.095295501505   0.033802582693   0.000000000000
				   -0.112325426064   0.034085231176   0.000000000000
				   -0.129136281679   0.031446759148   0.000000000000
				   -0.144240813283   0.025060213437   0.000000000000
				   -0.155995568458   0.014439205601   0.000000000000
				   -0.162457690254   -0.000359480864   0.000000000000
				   -0.161565627290   -0.017562821966   0.000000000000
				   -0.153171080142   -0.033786606681   0.000000000000
				   -0.138484008874   -0.046593757923   0.000000000000
				   -0.119021835834   -0.054634924688   0.000000000000
				   -0.096735648477   -0.057097681576   0.000000000000
				   -0.073765807396   -0.054162756786   0.000000000000
				   -0.052278053314   -0.046950529909   0.000000000000
				   -0.033929855308   -0.037180084905   0.000000000000
				   -0.019540252380   -0.026642437538   0.000000000000
				   -0.009030023918   -0.016596372164   0.000000000000
				   -0.002101894281   -0.008020420226   0.000000000000
				   0.002011950017   -0.001190454517   0.000000000000
				   0.004010813409   0.003840131780   0.000000000000
				   0.004539286715   0.007179006405   0.000000000000
				   0.004139490103   0.008980107986   0.000000000000
				   0.003244671200   0.009422684148   0.000000000000
				   0.002169958081   0.008646793465   0.000000000000
				   0.001158055190   0.006755185770   0.000000000000
				   0.000376663442   0.003857312084   0.000000000000
				   0.000000000000   0.000000000000   0.000000000000
				   0.000000000000   0.000000000000   0.000000000000
				   -0.000503781811   0.001397422972   0.000000000000
				   -0.001719853268   0.003142476946   0.000000000000
				   -0.003622229732   0.005141080148   0.000000000000
				   -0.006214549370   0.007303592476   0.000000000000
				   -0.009497484357   0.009575411425   0.000000000000
				   -0.013556027471   0.012005112718   0.000000000000
				   -0.018408441673   0.014617100834   0.000000000000
				   -0.024249242962   0.017550409644   0.000000000000
				   -0.031259793154   0.020904248966   0.000000000000
				   -0.039729630178   0.024764248710   0.000000000000
				   -0.049888266250   0.029089933602   0.000000000000
				   -0.061986688440   0.033714400631   0.000000000000
				   -0.076048567128   0.038238834463   0.000000000000
				   -0.092063297114   0.042080545046   0.000000000000
				   -0.109502214203   0.044344194105   0.000000000000
				   -0.127528372795   0.044018868949   0.000000000000
				   -0.145111755891   0.040125868753   0.000000000000
				   -0.160915462775   0.031853018650   0.000000000000
				   -0.173513771014   0.018769206674   0.000000000000
				   -0.181205145832   0.000943881848   0.000000000000
				   -0.182027469706   -0.019750128289   0.000000000000
				   -0.175573138950   -0.039646660423   0.000000000000
				   -0.162596877064   -0.056025383703   0.000000000000
				   -0.144121091613   -0.067248075715   0.000000000000
				   -0.121660755086   -0.072089974287   0.000000000000
				   -0.097166684688   -0.070331673850   0.000000000000
				   -0.072975890661   -0.062901512182   0.000000000000
				   -0.051234928723   -0.051641762494   0.000000000000
				   -0.033343867856   -0.038759581955   0.000000000000
				   -0.019605260854   -0.025987724483   0.000000000000
				   -0.009967706003   -0.014753155715   0.000000000000
				   -0.003675323647   -0.005570190969   0.000000000000
				   0.000015232253   0.001386771049   0.000000000000
				   0.001825584936   0.006193840047   0.000000000000
				   0.002374094591   0.009014801895   0.000000000000
				   0.002170003902   0.010073136839   0.000000000000
				   0.001587993146   0.009556661241   0.000000000000
				   0.000905961086   0.007612403678   0.000000000000
				   0.000314652534   0.004395989390   0.000000000000
				   0.000000000000   0.000000000000   0.000000000000
				   0.000000000000   0.000000000000   0.000000000000
				   -0.000610582357   0.002738671642   0.000000000000
				   -0.002096579418   0.005663490499   0.000000000000
				   -0.004425864077   0.008687098411   0.000000000000
				   -0.007585048154   0.011717193924   0.000000000000
				   -0.011551871459   0.014740328075   0.000000000000
				   -0.016415620435   0.017870719523   0.000000000000
				   -0.022174388603   0.021190845805   0.000000000000
				   -0.029039746178   0.024909382719   0.000000000000
				   -0.037188891915   0.029151670671   0.000000000000
				   -0.046913241525   0.034004877151   0.000000000000
				   -0.058406748323   0.039352721497   0.000000000000
				   -0.071864739578   0.044931484903   0.000000000000
				   -0.087213946055   0.050167439858   0.000000000000
				   -0.104343355271   0.054333464198   0.000000000000
				   -0.122634000770   0.056363641015   0.000000000000
				   -0.141222991299   0.055188911118   0.000000000000
				   -0.159148890488   0.049829188066   0.000000000000
				   -0.175223134707   0.039535542851   0.000000000000
				   -0.188250096938   0.023938477332   0.000000000000
				   -0.196860564465   0.003122675645   0.000000000000
				   -0.199404554631   -0.021010869863   0.000000000000
				   -0.195362918620   -0.044668681601   0.000000000000
				   -0.185029069441   -0.064990761800   0.000000000000
				   -0.168812201437   -0.080116444040   0.000000000000
				   -0.147568111397   -0.088366635110   0.000000000000
				   -0.122769099597   -0.088944501968   0.000000000000
				   -0.096636908083   -0.082309828527   0.000000000000
				   -0.071676867846   -0.070171671706   0.000000000000
				   -0.049974773836   -0.055054233014   0.000000000000
				   -0.032457660657   -0.039252605595   0.000000000000
				   -0.019530487424   -0.024823021291   0.000000000000
				   -0.010554788699   -0.012680760725   0.000000000000
				   -0.004770647328   -0.003220513722   0.000000000000
				   -0.001379926950   0.003556818678   0.000000000000
				   0.000326739702   0.007812749757   0.000000000000
				   0.000950559420   0.009820293029   0.000000000000
				   0.000944941986   0.009836433795   0.000000000000
				   0.000633939480   0.008066099292   0.000000000000
				   0.000248323223   0.004735480125   0.000000000000
				   0.000000000000   0.000000000000   0.000000000000
				   0.000000000000   0.000000000000   0.000000000000
				   -0.000724870020   0.004543824869   0.000000000000
				   -0.002487873178   0.009019669585   0.000000000000
				   -0.005255632715   0.013346665358   0.000000000000
				   -0.008985789784   0.017454870459   0.000000000000
				   -0.013636700747   0.021380523733   0.000000000000
				   -0.019291046655   0.025334132605   0.000000000000
				   -0.025930834102   0.029468488937   0.000000000000
				   -0.033771614455   0.034071073468   0.000000000000
				   -0.042981903137   0.039296057111   0.000000000000
				   -0.053833204717   0.045201644698   0.000000000000
				   -0.066467137904   0.051588776600   0.000000000000
				   -0.081002083562   0.058046353115   0.000000000000
				   -0.097259768857   0.063843306959   0.000000000000
				   -0.115032650425   0.068089185653   0.000000000000
				   -0.133627808504   0.069613476142   0.000000000000
				   -0.152171903193   0.067312285940   0.000000000000
				   -0.169754797296   0.060266501913   0.000000000000
				   -0.185334886908   0.047819775263   0.000000000000
				   -0.197995406889   0.029726204901   0.000000000000
				   -0.206852720952   0.006124612681   0.000000000000
				   -0.210824737424   -0.021112022442   0.000000000000
				   -0.209455958484   -0.048272662569   0.000000000000
				   -0.202621877349   -0.072586836966   0.000000000000
				   -0.190067122489   -0.092126539840   0.000000000000
				   -0.171822667985   -0.104808816099   0.000000000000
				   -0.148591965182   -0.109141728324   0.000000000000
				   -0.122097273805   -0.104817154307   0.000000000000
				   -0.094854277142   -0.093016908973   0.000000000000
				   -0.069525035399   -0.076277080351   0.000000000000
				   -0.047857012552   -0.057411617537   0.000000000000
				   -0.031034639135   -0.039288061007   0.000000000000
				   -0.018775957390   -0.023471124864   0.000000000000
				   -0.010405048730   -0.010760631380   0.000000000000
				   -0.005068507139   -0.001331877451   0.000000000000
				   -0.001960587992   0.004934900275   0.000000000000
				   -0.000362483137   0.008365999882   0.000000000000
				   0.000280827260   0.009302228474   0.000000000000
				   0.000366829225   0.008026396588   0.000000000000
				   0.000185283593   0.004845851415   0.000000000000
				   0.000000000000   0.000000000000   0.000000000000
				   0.000000000000   0.000000000000   0.000000000000
				   -0.000839120433   0.006883367887   0.000000000000
				   -0.002869116838   0.013324250298   0.000000000000
				   -0.006052141416   0.019269999367   0.000000000000
				   -0.010322110608   0.024678114118   0.000000000000
				   -0.015609929861   0.029665867705   0.000000000000
				   -0.021993486021   0.034561451120   0.000000000000
				   -0.029428594255   0.039604744297   0.000000000000
				   -0.038129942693   0.045174679040   0.000000000000
				   -0.048239440923   0.051434428584   0.000000000000
				   -0.059993287581   0.058408627858   0.000000000000
				   -0.073460439534   0.065765423440   0.000000000000
				   -0.088667556489   0.072955329034   0.000000000000
				   -0.105329096170   0.079057675761   0.000000000000
				   -0.123136179999   0.083070192052   0.000000000000
				   -0.141327131743   0.083725867500   0.000000000000
				   -0.159004922255   0.079953636962   0.000000000000
				   -0.175300602292   0.070929644999   0.000000000000
				   -0.189350774633   0.056184555192   0.000000000000
				   -0.200611355568   0.035690281995   0.000000000000
				   -0.208822721915   0.009716036836   0.000000000000
				   -0.213673889655   -0.019952295645   0.000000000000
				   -0.214931630469   -0.049934600747   0.000000000000
				   -0.212159624344   -0.077836223832   0.000000000000
				   -0.204500676706   -0.101901459533   0.000000000000
				   -0.191120420365   -0.119813641513   0.000000000000
				   -0.171760352984   -0.129396285452   0.000000000000
				   -0.147261953222   -0.129338314853   0.000000000000
				   -0.119665600692   -0.119836441237   0.000000000000