<VTKFile type="UnstructuredGrid" version="0.1" byte_order="BigEndian">
	<UnstructuredGrid>
		<Piece NumberOfPoints="1681" NumberOfCells="3200">
			<PointData Scalars="scalars" Vectors = "Velocity">
				<DataArray type="Float32" Name="Velocity" NumberOfComponents="3" Format="ascii">
				   0.000000000000   0.000000000000   0.000000000000
				   0.000000000000   0.000000000000   0.000000000000
				   0.000000000000   0.000000000000   0.000000000000
				   0.000000000000   0.000000000000   0.000000000000
				   0.000000000000   0.000000000000   0.000000000000
				   0.000000000000   0.000000000000   0.000000000000
				   0.000000000000   0.000000000000   0.000000000000
				   0.000000000000   0.000000000000   0.000000000000
				   0.000000000000   0.000000000000   0.000000000000
				   0.000000000000   0.000000000000   0.000000000000
				   0.000000000000   0.000000000000   0.000000000000
				   0.000000000000   0.000000000000   0.000000000000
				   0.000000000000   0.000000000000   0.000000000000
				   0.000000000000   0.000000000000   0.000000000000
				   0.000000000000   0.000000000000   0.000000000000
				   0.000000000000   0.000000000000   0.000000000000
				   0.000000000000   0.000000000000   0.000000000000
				   0.000000000000   0.000000000000   0.000000000000
				   0.000000000000   0.000000000000   0.000000000000
				   0.000000000000   0.000000000000   0.000000000000
				   0.000000000000   0.000000000000   0.000000000000
				   0.000000000000   0.000000000000   0.000000000000
				   0.000000000000   0.000000000000   0.000000000000
				   0.000000000000   0.000000000000   0.000000000000
				   0.000000000000   0.000000000000   0.000000000000
				   0.000000000000   0.000000000000   0.000000000000
				   0.000000000000   0.000000000000   0.000000000000
				   0.000000000000   0.000000000000   0.000000000000
				   0.000000000000   0.000000000000   0.000000000000
				   0.000000000000   0.000000000000   0.000000000000
				   0.000000000000   0.000000000000   0.000000000000
				   0.000000000000   0.000000000000   0.000000000000
				   0.000000000000   0.000000000000   0.000000000000
				   0.000000000000   0.000000000000   0.000000000000
				   0.000000000000   0.000000000000   0.000000000000
				   0.000000000000   0.000000000000   0.000000000000
				   0.000000000000   0.000000000000   0.000000000000
				   0.000000000000   0.000000000000   0.000000000000
				   0.000000000000   0.000000000000   0.000000000000
				   0.000000000000   0.000000000000   0.000000000000
				   0.000000000000   0.000000000000   0.000000000000
				   0.000000000000   0.000000000000   0.000000000000
				   -0.000043150448   -0.000045428286   0.000000000000
				   -0.000100023065   -0.000035432501   0.000000000000
				   -0.000161490018   -0.000030074917   0.000000000000
				   -0.000274288563   -0.000019029754   0.000000000000
				   -0.000433667085   -0.000008540376   0.000000000000
				   -0.000643597592   0.000001307640   0.000000000000
				   -0.000897567540   0.000009236240   0.000000000000
				   -0.001190219228   0.000014785502   0.000000000000
				   -0.001511701762   0.000017216385   0.000000000000
				   -0.001862086856   0.000016977606   0.000000000000
				   -0.002240056143   0.000015220708   0.000000000000
				   -0.002644940398   0.000011858637   0.000000000000
				   -0.003072157997   0.000006968273   0.000000000000
				   -0.003522310249   -0.000000159529   0.000000000000
				   -0.003988528319   -0.000009306506   0.000000000000
				   -0.004461280914   -0.000021215067   0.000000000000
				   -0.004925621331   -0.000037755798   0.000000000000
				   -0.005351951512   -0.000061003844   0.000000000000
				   -0.005699523698   -0.000094484507   0.000000000000
				   -0.005907234607   -0.000142137410   0.000000000000
				   -0.005897523341   -0.000192415001   0.000000000000
				   -0.005654485423   -0.000233482937   0.000000000000
				   -0.005221164126   -0.000267673311   0.000000000000
				   -0.004653651879   -0.000291778881   0.000000000000
				   -0.004009378735   -0.000304587153   0.000000000000
				   -0.003338198462   -0.000307529036   0.000000000000
				   -0.002682827626   -0.000301600951   0.000000000000
				   -0.002073767715   -0.000289138142   0.000000000000
				   -0.001529511901   -0.000272719485   0.000000000000
				   -0.001055872809   -0.000253887889   0.000000000000
				   -0.000664192370   -0.000233645238   0.000000000000
				   -0.000355194172   -0.000213906420   0.000000000000
				   -0.000127428510   -0.000194400212   0.000000000000
				   0.000031856552   -0.000172732418   0.000000000000
				   0.000134996503   -0.000146957513   0.000000000000
				   0.000186479433   -0.000117535873   0.000000000000
				   0.000186907647   -0.000085377186   0.000000000000
				   0.000141019104   -0.000049658005   0.000000000000
				   0.000058446548   -0.000024635356   0.000000000000
				   0.000000000000   0.000000000000   0.000000000000
				   0.000000000000   0.000000000000   0.000000000000
				   -0.000063725913   -0.000055887519   0.000000000000
				   -0.000182041126   -0.000020121899   0.000000000000
				   -0.000336935055   0.000025180088   0.000000000000
				   -0.000574128352   0.000076670422   0.000000000000
				   -0.000891244861   0.000122207007   0.000000000000
				   -0.001293984909   0.000159966491   0.000000000000
				   -0.001772230612   0.000186780524   0.000000000000
				   -0.002322807562   0.000203451162   0.000000000000
				   -0.002933237616   0.000209941801   0.000000000000
				   -0.003602137011   0.000208300969   0.000000000000
				   -0.004324379385   0.000200948354   0.000000000000
				   -0.005097714240   0.000188790478   0.000000000000
				   -0.005913444166   0.000171803762   0.000000000000
				   -0.006773066731   0.000148930393   0.000000000000
				   -0.007662595718   0.000118895120   0.000000000000
				   -0.008562312915   0.000078961916   0.000000000000
				   -0.009443367991   0.000024217724   0.000000000000
				   -0.010250525441   -0.000051389492   0.000000000000
				   -0.010907560507   -0.000154986411   0.000000000000
				   -0.011299951165   -0.000292726229   0.000000000000
				   -0.011283258437   -0.000443122066   0.000000000000
				   -0.010832102523   -0.000578829867   0.000000000000
				   -0.010027531265   -0.000696829889   0.000000000000
				   -0.008973015575   -0.000787587671   0.000000000000
				   -0.007774715450   -0.000844802054   0.000000000000
				   -0.006523047741   -0.000869289702   0.000000000000
				   -0.005296229583   -0.000865019520   0.000000000000
				   -0.004151126131   -0.000838125617   0.000000000000
				   -0.003123765859   -0.000794082184   0.000000000000
				   -0.002224371289   -0.000736156549   0.000000000000
				   -0.001473859398   -0.000668727562   0.000000000000
				   -0.000870583907   -0.000594464286   0.000000000000
				   -0.000414510257   -0.000515314099   0.000000000000
				   -0.000092443246   -0.000431346301   0.000000000000
				   0.000111677618   -0.000343785802   0.000000000000
				   0.000212878286   -0.000255244434   0.000000000000
				   0.000227597619   -0.000169328979   0.000000000000
				   0.000181169061   -0.000086923061   0.000000000000
				   0.000086415608   -0.000045870281   0.000000000000
				   0.000000000000   0.000000000000   0.000000000000
				   0.000000000000   0.000000000000   0.000000000000
				   -0.000097002138   0.000008793154   0.000000000000
				   -0.000278064819   0.000100017784   0.000000000000
				   -0.000526324854   0.000211271530   0.000000000000
				   -0.000883112541   0.000326859546   0.000000000000
				   -0.001347031007   0.000428741408   0.000000000000
				   -0.001926664357   0.000512018951   0.000000000000
				   -0.002609278641   0.000571731726   0.000000000000
				   -0.003393976140   0.000609473280   0.000000000000
				   -0.004266139316   0.000626581247   0.000000000000
				   -0.005223775472   0.000626914958   0.000000000000
				   -0.006258661707   0.000614519268   0.000000000000
				   -0.007367413321   0.000591616406   0.000000000000
				   -0.008536774453   0.000558500245   0.000000000000
				   -0.009768196410   0.000513287366   0.000000000000
				   -0.011040316990   0.000452630770   0.000000000000
				   -0.012323623485   0.000370331628   0.000000000000
				   -0.013576482420   0.000256442185   0.000000000000
				   -0.014720674791   0.000098494015   0.000000000000
				   -0.015648165393   -0.000117043018   0.000000000000
				   -0.016197625826   -0.000398704361   0.000000000000
				   -0.016168441302   -0.000711306057   0.000000000000
				   -0.015532172660   -0.001005975080   0.000000000000
				   -0.014403775025   -0.001266486102   0.000000000000
				   -0.012926407574   -0.001469913935   0.000000000000
				   -0.011248518436   -0.001604179367   0.000000000000
				   -0.009494627201   -0.001671411003   0.000000000000
				   -0.007772104090   -0.001678037685   0.000000000000
				   -0.006159594076   -0.001634253486   0.000000000000
				   -0.004707732051   -0.001550721049   0.000000000000
				   -0.003430930282   -0.001434766849   0.000000000000
				   -0.002359725089   -0.001295138365   0.000000000000
				   -0.001490644256   -0.001137143960   0.000000000000
				   -0.000822266430   -0.000965698571   0.000000000000
				   -0.000338180992   -0.000784428864   0.000000000000
				   -0.000018824916   -0.000599621235   0.000000000000
				   0.000157931880   -0.000419026983   0.000000000000
				   0.000217902207   -0.000254415101   0.000000000000
				   0.000198846285   -0.000114320978   0.000000000000
				   0.000105517488   -0.000043216914   0.000000000000
				   0.000000000000   0.000000000000   0.000000000000
				   0.000000000000   0.000000000000   0.000000000000
				   -0.000123598610   0.000120888493   0.000000000000
				   -0.000364701203   0.000306406449   0.000000000000
				   -0.000703713920   0.000512979403   0.000000000000
				   -0.001175825520   0.000716210816   0.000000000000
				   -0.001778464940   0.000894370712   0.000000000000
				   -0.002521469627   0.001040128509   0.000000000000
				   -0.003389844715   0.001146326647   0.000000000000
				   -0.004385174864   0.001215474796   0.000000000000
				   -0.005491323773   0.001250444953   0.000000000000
				   -0.006706212191   0.001257070121   0.000000000000
				   -0.008019203867   0.001241156477   0.000000000000
				   -0.009426275756   0.001206408308   0.000000000000
				   -0.010909948924   0.001153629186   0.000000000000
				   -0.012471003596   0.001079636454   0.000000000000
				   -0.014080786666   0.000978212235   0.000000000000
				   -0.015700726977   0.000838312668   0.000000000000
				   -0.017277631357   0.000642994434   0.000000000000
				   -0.018712601215   0.000372200191   0.000000000000
				   -0.019869475281   0.000003431318   0.000000000000
				   -0.020546839043   -0.000479699544   0.000000000000
				   -0.020497028847   -0.001024626444   0.000000000000
				   -0.019692117982   -0.001545552379   0.000000000000
				   -0.018278176793   -0.002005305005   0.000000000000
				   -0.016433261365   -0.002369119283   0.000000000000
				   -0.014341965866   -0.002617426580   0.000000000000
				   -0.012156825619   -0.002750117403   0.000000000000
				   -0.010009838142   -0.002777001528   0.000000000000
				   -0.007997980117   -0.002715470650   0.000000000000
				   -0.006183328788   -0.002583096243   0.000000000000
				   -0.004583000515   -0.002392377163   0.000000000000
				   -0.003235465557   -0.002157939151   0.000000000000
				   -0.002135416750   -0.001888982919   0.000000000000
				   -0.001279658406   -0.001594713995   0.000000000000
				   -0.000648098945   -0.001283890689   0.000000000000
				   -0.000217055120   -0.000969904901   0.000000000000
				   0.000042045323   -0.000667556615   0.000000000000
				   0.000160928031   -0.000396157494   0.000000000000
				   0.000183513298   -0.000172622234   0.000000000000
				   0.000111307031   -0.000042982299   0.000000000000
				   0.000000000000   0.000000000000   0.000000000000
				   0.000000000000   0.000000000000   0.000000000000
				   -0.000145772271   0.000289070789   0.000000000000
				   -0.000440223697   0.000611643860   0.000000000000
				   -0.000862151116   0.000944325829   0.000000000000
				   -0.001440571357   0.001257852722   0.000000000000
				   -0.002170572771   0.001529719345   0.000000000000
				   -0.003062110923   0.001751992869   0.000000000000
				   -0.004097452886   0.001915607839   0.000000000000
				   -0.005279958759   0.002024450853   0.000000000000
				   -0.006592340133   0.002082907719   0.000000000000
				   -0.008032787607   0.002098850487   0.000000000000
				   -0.009588808964   0.002079868744   0.000000000000
				   -0.011256051299   0.002031130786   0.000000000000
				   -0.013013414564   0.001953795847   0.000000000000
				   -0.014860822029   0.001843025412   0.000000000000
				   -0.016762864819   0.001689035790   0.000000000000
				   -0.018672704914   0.001475029803   0.000000000000
				   -0.020526681117   0.001175908366   0.000000000000
				   -0.022208274010   0.000760784146   0.000000000000
				   -0.023557349414   0.000193219379   0.000000000000
				   -0.024336502361   -0.000550208258   0.000000000000
				   -0.024257269795   -0.001391072979   0.000000000000
				   -0.023296301849   -0.002201445280   0.000000000000
				   -0.021628617109   -0.002921155373   0.000000000000
				   -0.019460713450   -0.003494766700   0.000000000000
				   -0.017008718384   -0.003889608581   0.000000000000
				   -0.014451230785   -0.004106667061   0.000000000000
				   -0.011941815354   -0.004161930594   0.000000000000
				   -0.009592132321   -0.004080400985   0.000000000000
				   -0.007473064215   -0.003888188077   0.000000000000
				   -0.005602959321   -0.003604870009   0.000000000000
				   -0.004025587488   -0.003252643151   0.000000000000
				   -0.002732598007   -0.002845655864   0.000000000000
				   -0.001718007107   -0.002399034214   0.000000000000
				   -0.000958027059   -0.001928494075   0.000000000000
				   -0.000425568354   -0.001456430758   0.000000000000
				   -0.000087424846   -0.001006161745   0.000000000000
				   0.000091889519   -0.000604014865   0.000000000000
				   0.000157721818   -0.000275687622   0.000000000000
				   0.000111364962   -0.000063675420   0.000000000000
				   0.000000000000   0.000000000000   0.000000000000
				   0.000000000000   0.000000000000   0.000000000000
				   -0.000163777818   0.000513140385   0.000000000000
				   -0.000504184282   0.001022791048   0.000000000000
				   -0.001000053765   0.001518145032   0.000000000000
				   -0.001674686280   0.001969063180   0.000000000000
				   -0.002520478181   0.002354364541   0.000000000000
				   -0.003546956748   0.002667713615   0.000000000000
				   -0.004732776174   0.002899335657   0.000000000000
				   -0.006082158034   0.003055510380   0.000000000000
				   -0.007576726043   0.003142318192   0.000000000000
				   -0.009215131160   0.003169811220   0.000000000000
				   -0.010983486487   0.003147379397   0.000000000000
				   -0.012877414549   0.003081595778   0.000000000000
				   -0.014872827059   0.002973841131   0.000000000000
				   -0.016968897824   0.002817184566   0.000000000000
				   -0.019124218420   0.002597556705   0.000000000000
				   -0.021284757929   0.002291185442   0.000000000000
				   -0.023378157307   0.001861809158   0.000000000000
				   -0.025272653846   0.001265404696   0.000000000000
				   -0.026785974946   0.000453129565   0.000000000000
				   -0.027648522762   -0.000608138522   0.000000000000
				   -0.027536620393   -0.001818018350   0.000000000000
				   -0.026430311789   -0.002994724179   0.000000000000
				   -0.024528288661   -0.004038694626   0.000000000000
				   -0.022063509629   -0.004870323878   0.000000000000
				   -0.019283768848   -0.005447020313   0.000000000000
				   -0.016392366360   -0.005769663687   0.000000000000
				   -0.013562705418   -0.005859362489   0.000000000000
				   -0.010920133197   -0.005752160578   0.000000000000
				   -0.008542601333   -0.005486246583   0.000000000000
				   -0.006447728053   -0.005089945865   0.000000000000
				   -0.004681772866   -0.004595098902   0.000000000000
				   -0.003232058087   -0.004022296333   0.000000000000
				   -0.002088707272   -0.003394068475   0.000000000000
				   -0.001223945094   -0.002734467273   0.000000000000
				   -0.000607560867   -0.002076006483   0.000000000000
				   -0.000202736295   -0.001451094431   0.000000000000
				   0.000029038057   -0.000892595905   0.000000000000
				   0.000132327114   -0.000436063723   0.000000000000
				   0.000107527152   -0.000119676995   0.000000000000
				   0.000000000000   0.000000000000   0.000000000000
				   0.000000000000   0.000000000000   0.000000000000
				   -0.000177514289   0.000788889309   0.000000000000
				   -0.000556283915   0.001534044592   0.000000000000
				   -0.001114808679   0.002228639488   0.000000000000
				   -0.001872340349   0.002843801003   0.000000000000
				   -0.002818911747   0.003361366589   0.000000000000
				   -0.003963267671   0.003779051716   0.000000000000
				   -0.005280024325   0.004087865693   0.000000000000
				   -0.006773612882   0.004297639184   0.000000000000
				   -0.008424498021   0.004416591494   0.000000000000
				   -0.010231717637   0.004457257406   0.000000000000
				   -0.012180340765   0.004430906641   0.000000000000
				   -0.014266256954   0.004345432086   0.000000000000
				   -0.016463198095   0.004202147467   0.000000000000
				   -0.018770010499   0.003991521306   0.000000000000
				   -0.021140617300   0.003694284716   0.000000000000
				   -0.023515568700   0.003278069830   0.000000000000
				   -0.025815298572   0.002694906925   0.000000000000
				   -0.027894850217   0.001887786763   0.000000000000
				   -0.029553943318   0.000789445996   0.000000000000
				   -0.030494828470   -0.000650861185   0.000000000000
				   -0.030357075082   -0.002301914274   0.000000000000
				   -0.029118252405   -0.003911977163   0.000000000000
				   -0.026998909307   -0.005341114947   0.000000000000
				   -0.024256901077   -0.006483446010   0.000000000000
				   -0.021170065237   -0.007277294155   0.000000000000
				   -0.017968281444   -0.007721718746   0.000000000000
				   -0.014847265481   -0.007847712647   0.000000000000
				   -0.011946025028   -0.007706113101   0.000000000000
				   -0.009347948737   -0.007349923450   0.000000000000
				   -0.007068252224   -0.006818842907   0.000000000000
				   -0.005152853268   -0.006157055588   0.000000000000
				   -0.003583078628   -0.005392897308   0.000000000000
				   -0.002344064512   -0.004557383848   0.000000000000
				   -0.001403647858   -0.003683627656   0.000000000000
				   -0.000728198935   -0.002814687864   0.000000000000
				   -0.000277575539   -0.001992120999   0.000000000000
				   -0.000010426505   -0.001254908568   0.000000000000
				   0.000116429215   -0.000648707971   0.000000000000
				   0.000103263830   -0.000210284890   0.000000000000
				   0.000000000000   0.000000000000   0.000000000000
				   0.000000000000   0.000000000000   0.000000000000
				   -0.000188996716   0.001121692881   0.000000000000
				   -0.000599394658   0.002152324695   0.000000000000
				   -0.001210255159   0.003086258221   0.000000000000
				   -0.002037897158   0.003896172221   0.000000000000
				   -0.003070636605   0.004568064413   0.000000000000
				   -0.004316490884   0.005105768844   0.000000000000
				   -0.005746156671   0.005502288013   0.000000000000
				   -0.007363875288   0.005772428288   0.000000000000
				   -0.009148834933   0.005927378929   0.000000000000
				   -0.011100347667   0.005982767340   0.000000000000
				   -0.013202722695   0.005951975172   0.000000000000
				   -0.015452436425   0.005844176740   0.000000000000
				   -0.017821901095   0.005660377800   0.000000000000
				   -0.020310454394   0.005387831834   0.000000000000
				   -0.022869040732   0.005001076011   0.000000000000
				   -0.025434316914   0.004458801858   0.000000000000
				   -0.027921582983   0.003699730250   0.000000000000
				   -0.030176454858   0.002647919989   0.000000000000
				   -0.031982939708   0.001214046502   0.000000000000
				   -0.033014380364   -0.000667891343   0.000000000000
				   -0.032869787825   -0.002835407962   0.000000000000
				   -0.031516802405   -0.004963580547   0.000000000000
				   -0.029190784145   -0.006858610025   0.000000000000
				   -0.026171665570   -0.008372736847   0.000000000000
				   -0.022772364908   -0.009421807114   0.000000000000
				   -0.019256445854   -0.010005634174   0.000000000000
				   -0.015846282746   -0.010166504181   0.000000000000
				   -0.012696907146   -0.009974269371   0.000000000000
				   -0.009897399703   -0.009502725756   0.000000000000
				   -0.007458928798   -0.008806948678   0.000000000000
				   -0.005424014558   -0.007946806591   0.000000000000
				   -0.003765684158   -0.006959900673   0.000000000000
				   -0.002462382211   -0.005886666078   0.000000000000
				   -0.001476486236   -0.004769615654   0.000000000000
				   -0.000769901121   -0.003662650863   0.000000000000
				   -0.000298498067   -0.002616681312   0.000000000000
				   -0.000017634508   -0.001676841514   0.000000000000
				   0.000115177345   -0.000898460714   0.000000000000
				   0.000101266052   -0.000322260295   0.000000000000
				   0.000000000000   0.000000000000   0.000000000000
				   0.000000000000   0.000000000000   0.000000000000
				   -0.000199162429   0.001513364186   0.000000000000
				   -0.000635371764   0.002876978278   0.000000000000
				   -0.001288667729   0.004090069254   0.000000000000
				   -0.002173491210   0.005126099255   0.000000000000
				   -0.003277314842   0.005975489541   0.000000000000
				   -0.004607776676   0.006649713009   0.000000000000
				   -0.006132199253   0.007144781143   0.000000000000
				   -0.007854455899   0.007482022904   0.000000000000
				   -0.009752505101   0.007676659359   0.000000000000
				   -0.011825936943   0.007748231829   0.000000000000
				   -0.014058634207   0.007712655716   0.000000000000
				   -0.016448049406   0.007580553180   0.000000000000
				   -0.018966344970   0.007352367529   0.000000000000
				   -0.021614490748   0.007011659352   0.000000000000
				   -0.024342213384   0.006526320171   0.000000000000
				   -0.027084759229   0.005844366312   0.000000000000
				   -0.029755664406   0.004887607392   0.000000000000
				   -0.032193347232   0.003560180388   0.000000000000
				   -0.034167544216   0.001749663305   0.000000000000
				   -0.035324573841   -0.000636760812   0.000000000000
				   -0.035213918877   -0.003410881067   0.000000000000
				   -0.033774083414   -0.006155091557   0.000000000000
				   -0.031246300987   -0.008604212886   0.000000000000
				   -0.027934931709   -0.010562101174   0.000000000000
				   -0.024194988920   -0.011913938842   0.000000000000
				   -0.020333014887   -0.012654727504   0.000000000000
				   -0.016608080543   -0.012841476748   0.000000000000
				   -0.013197823291   -0.012571603004   0.000000000000
				   -0.010198317271   -0.011947685720   0.000000000000
				   -0.007614919388   -0.011045907185   0.000000000000
				   -0.005483280374   -0.009946669083   0.000000000000
				   -0.003764646109   -0.008698580183   0.000000000000
				   -0.002428048079   -0.007352310802   0.000000000000
				   -0.001428387119   -0.005959899614   0.000000000000
				   -0.000721269334   -0.004586206933   0.000000000000
				   -0.000257152078   -0.003291591776   0.000000000000
				   0.000012862037   -0.002127889258   0.000000000000
				   0.000132193395   -0.001159658154   0.000000000000
				   0.000105075357   -0.000434854188   0.000000000000
				   0.000000000000   0.000000000000   0.000000000000
				   0.000000000000   0.000000000000   0.000000000000
				   -0.000208543778   0.001962426896   0.000000000000
				   -0.000665597133   0.003707771778   0.000000000000
				   -0.001352875251   0.005241674344   0.000000000000
				   -0.002283495399   0.006537665249   0.000000000000
				   -0.003444802522   0.007590379489   0.000000000000
				   -0.004844532401   0.008419998742   0.000000000000
				   -0.006447353704   0.009026333785   0.000000000000
				   -0.008256864845   0.009438781843   0.000000000000
				   -0.010250120279   0.009677737967   0.000000000000
				   -0.012427204470   0.009767679506   0.000000000000
				   -0.014772007420   0.009727769482   0.000000000000
				   -0.017283608989   0.009570393393   0.000000000000
				   -0.019935099169   0.009295388529   0.000000000000
				   -0.022730442154   0.008882470002   0.000000000000
				   -0.025620691054   0.008291644327   0.000000000000
				   -0.028542763246   0.007458525762   0.000000000000
				   -0.031411099185   0.006287681756   0.000000000000
				   -0.034060431304   0.004659900502   0.000000000000
				   -0.036250563899   0.002428395037   0.000000000000
				   -0.037598888142   -0.000536404922   0.000000000000
				   -0.037586273227   -0.004018729154   0.000000000000
				   -0.036097750796   -0.007496905009   0.000000000000
				   -0.033370038500   -0.010621144375   0.000000000000
				   -0.029730569399   -0.013124894960   0.000000000000
				   -0.025586350809   -0.014843080157   0.000000000000
				   -0.021305378669   -0.015761550323   0.000000000000
				   -0.017200992924   -0.015956985593   0.000000000000
				   -0.013484626818   -0.015565281086   0.000000000000
				   -0.010263133261   -0.014730992857   0.000000000000
				   -0.007534123124   -0.013561391129   0.000000000000
				   -0.005321273823   -0.012164692487   0.000000000000
				   -0.003568342038   -0.010602853105   0.000000000000
				   -0.002230258605   -0.008937549878   0.000000000000
				   -0.001250872622   -0.007230204206   0.000000000000
				   -0.000576575157   -0.005556665166   0.000000000000
				   -0.000150320858   -0.003986844226   0.000000000000
				   0.000082367979   -0.002580020674   0.000000000000
				   0.000167860661   -0.001410438679   0.000000000000
				   0.000115147561   -0.000533993662   0.000000000000
				   0.000000000000   0.000000000000   0.000000000000
				   0.000000000000   0.000000000000   0.000000000000
				   -0.000216482806   0.002463407816   0.000000000000
				   -0.000689973884   0.004636834740   0.000000000000
				   -0.001404044655   0.006531557826   0.000000000000
				   -0.002370722494   0.008120701694   0.000000000000
				   -0.003577678650   0.009402815288   0.000000000000
				   -0.005033164750   0.010407496682   0.000000000000
				   -0.006699950614   0.011138886861   0.000000000000
				   -0.008581736814   0.011635811163   0.000000000000
				   -0.010655225536   0.011924940308   0.000000000000
				   -0.012921366790   0.012036895536   0.000000000000
				   -0.015364785489   0.011994918313   0.000000000000
				   -0.017986992425   0.011813761265   0.000000000000
				   -0.020763280469   0.011492962118   0.000000000000
				   -0.023702629358   0.011008179743   0.000000000000
				   -0.026760194697   0.010311040982   0.000000000000
				   -0.029877515786   0.009324680262   0.000000000000
				   -0.032974716018   0.007933346329   0.000000000000
				   -0.035888617514   0.005986794068   0.000000000000
				   -0.038371572090   0.003296830338   0.000000000000
				   -0.040009078720   -0.000314551870   0.000000000000
				   -0.040191714328   -0.004621006768   0.000000000000
				   -0.038715050449   -0.008988300595   0.000000000000
				   -0.035789159494   -0.012951194064   0.000000000000
				   -0.031761885587   -0.016141137704   0.000000000000
				   -0.027108496646   -0.018317167773   0.000000000000
				   -0.022284945554   -0.019442856254   0.000000000000
				   -0.017686410118   -0.019617642095   0.000000000000
				   -0.013578253174   -0.019033727773   0.000000000000
				   -0.010085852864   -0.017899338538   0.000000000000
				   -0.007196391468   -0.016369262371   0.000000000000
				   -0.004913762066   -0.014591508132   0.000000000000
				   -0.003154686150   -0.012644899586   0.000000000000
				   -0.001851974636   -0.010602490504   0.000000000000
				   -0.000932546738   -0.008533970070   0.000000000000
				   -0.000329339172   -0.006525446026   0.000000000000
				   0.000024858207   -0.004656035906   0.000000000000
				   0.000191551427   -0.002993018512   0.000000000000
				   0.000221921258   -0.001621308809   0.000000000000
				   0.000131152596   -0.000604911442   0.000000000000
				   0.000000000000   0.000000000000   0.000000000000
				   0.000000000000   0.000000000000   0.000000000000
				   -0.000223580134   0.003017610290   0.000000000000
				   -0.000709749983   0.005667305892   0.000000000000
				   -0.001444773433   0.007964400453   0.000000000000
				   -0.002439693193   0.009881482047   0.000000000000
				   -0.003682863832   0.011420950100   0.000000000000
				   -0.005183278629   0.012622510546   0.000000000000
				   -0.006902544798   0.013495014149   0.000000000000
				   -0.008845054947   0.014087972539   0.000000000000
				   -0.010987701633   0.014435532392   0.000000000000
				   -0.013333029995   0.014575743209   0.000000000000
				   -0.015867255867   0.014536970143   0.000000000000
				   -0.018595203255   0.014337411501   0.000000000000
				   -0.021496046813   0.013976857075   0.000000000000
				   -0.024585979803   0.013427675699   0.000000000000
				   -0.027827247603   0.012633473564   0.000000000000
				   -0.031170901849   0.011503035750   0.000000000000
				   -0.034549296350   0.009896150733   0.000000000000
				   -0.037806964926   0.007626446915   0.000000000000
				   -0.040694385327   0.004452222400   0.000000000000
				   -0.042766204878   0.000120185553   0.000000000000
				   -0.043291289419   -0.005158028825   0.000000000000
				   -0.041920381464   -0.010623847413   0.000000000000
				   -0.038803834732   -0.015661023363   0.000000000000
				   -0.034302837643   -0.019752913616   0.000000000000
				   -0.028979506865   -0.022532606625   0.000000000000