<VTKFile type="UnstructuredGrid" version="0.1" byte_order="BigEndian">
	<UnstructuredGrid>
		<Piece NumberOfPoints="1681" NumberOfCells="3200">
			<PointData Scalars="scalars" Vectors = "Velocity">
				<DataArray type="Float32" Name="Velocity" NumberOfComponents="3" Format="ascii">
				   0.000000000000   0.000000000000   0.000000000000
				   0.000000000000   0.000000000000   0.000000000000
				   0.000000000000   0.000000000000   0.000000000000
				   0.000000000000   0.000000000000   0.000000000000
				   0.000000000000   0.000000000000   0.000000000000
				   0.000000000000   0.000000000000   0.000000000000
				   0.000000000000   0.000000000000   0.000000000000
				   0.000000000000   0.000000000000   0.000000000000
				   0.000000000000   0.000000000000   0.000000000000
				   0.000000000000   0.000000000000   0.000000000000
				   0.000000000000   0.000000000000   0.000000000000
				   0.000000000000   0.000000000000   0.000000000000
				   0.000000000000   0.000000000000   0.000000000000
				   0.000000000000   0.000000000000   0.000000000000
				   0.000000000000   0.000000000000   0.000000000000
				   0.000000000000   0.000000000000   0.000000000000
				   0.000000000000   0.000000000000   0.000000000000
				   0.000000000000   0.000000000000   0.000000000000
				   0.000000000000   0.000000000000   0.000000000000
				   0.000000000000   0.000000000000   0.000000000000
				   0.000000000000   0.000000000000   0.000000000000
				   0.000000000000   0.000000000000   0.000000000000
				   0.000000000000   0.000000000000   0.000000000000
				   0.000000000000   0.000000000000   0.000000000000
				   0.000000000000   0.000000000000   0.000000000000
				   0.000000000000   0.000000000000   0.000000000000
				   0.000000000000   0.000000000000   0.000000000000
				   0.000000000000   0.000000000000   0.000000000000
				   0.000000000000   0.000000000000   0.000000000000
				   0.000000000000   0.000000000000   0.000000000000
				   0.000000000000   0.000000000000   0.000000000000
				   0.000000000000   0.000000000000   0.000000000000
				   0.000000000000   0.000000000000   0.000000000000
				   0.000000000000   0.000000000000   0.000000000000
				   0.000000000000   0.000000000000   0.000000000000
				   0.000000000000   0.000000000000   0.000000000000
				   0.000000000000   0.000000000000   0.000000000000
				   0.000000000000   0.000000000000   0.000000000000
				   0.000000000000   0.000000000000   0.000000000000
				   0.000000000000   0.000000000000   0.000000000000
				   0.000000000000   0.000000000000   0.000000000000
				   0.000000000000   0.000000000000   0.000000000000
				   0.000186749126   0.000125685262   0.000000000000
				   0.000168308622   0.000115620740   0.000000000000
				   0.000268474685   0.000138173720   0.000000000000
				   0.000339803876   0.000168354689   0.000000000000
				   0.000354233332   0.000215821475   0.000000000000
				   0.000298312551   0.000264272167   0.000000000000
				   0.000162012314   0.000306770042   0.000000000000
				   -0.000074105941   0.000344356139   0.000000000000
				   -0.000439856897   0.000381514469   0.000000000000
				   -0.000982014746   0.000424660858   0.000000000000
				   -0.001752452652   0.000478105902   0.000000000000
				   -0.002821573053   0.000544409412   0.000000000000
				   -0.004271912023   0.000624569235   0.000000000000
				   -0.006217999871   0.000720456937   0.000000000000
				   -0.008741750475   0.000823351561   0.000000000000
				   -0.011882765586   0.000919278948   0.000000000000
				   -0.015579767779   0.000981795317   0.000000000000
				   -0.019536381287   0.000967888300   0.000000000000
				   -0.023145906292   0.000826498704   0.000000000000
				   -0.025354631305   0.000488807372   0.000000000000
				   -0.025002078796   0.000009011149   0.000000000000
				   -0.021944658958   -0.000428207688   0.000000000000
				   -0.016946586955   -0.000731094785   0.000000000000
				   -0.011057976699   -0.000850256113   0.000000000000
				   -0.005329377008   -0.000781436513   0.000000000000
				   -0.000514043583   -0.000578257263   0.000000000000
				   0.002995773301   -0.000310170847   0.000000000000
				   0.005160701153   -0.000040854209   0.000000000000
				   0.006173131742   0.000187771400   0.000000000000
				   0.006324978618   0.000367041306   0.000000000000
				   0.005896125452   0.000487743395   0.000000000000
				   0.005125723733   0.000562638896   0.000000000000
				   0.004178180831   0.000595908445   0.000000000000
				   0.003168325312   0.000589884088   0.000000000000
				   0.002187477223   0.000549341580   0.000000000000
				   0.001312223314   0.000483774692   0.000000000000
				   0.000604287060   0.000402896879   0.000000000000
				   0.000111732193   0.000317715237   0.000000000000
				   -0.000161878185   0.000238948761   0.000000000000
				   0.000000000000   0.000000000000   0.000000000000
				   0.000000000000   0.000000000000   0.000000000000
				   0.000233198560   -0.000098958771   0.000000000000
				   0.000187885996   -0.000230109716   0.000000000000
				   0.000267746756   -0.000220943494   0.000000000000
				   0.000316608428   -0.000151886188   0.000000000000
				   0.000276043573   -0.000030615697   0.000000000000
				   0.000102779347   0.000115588561   0.000000000000
				   -0.000237536801   0.000268139495   0.000000000000
				   -0.000798322455   0.000425232814   0.000000000000
				   -0.001643171598   0.000590162156   0.000000000000
				   -0.002862067596   0.000775678719   0.000000000000
				   -0.004553723966   0.000991825251   0.000000000000
				   -0.006853200584   0.001247925213   0.000000000000
				   -0.009909651024   0.001544334492   0.000000000000
				   -0.013929076309   0.001879234504   0.000000000000
				   -0.019033800946   0.002219169651   0.000000000000
				   -0.025237223734   0.002504140724   0.000000000000
				   -0.032338089357   0.002631916665   0.000000000000
				   -0.039681123408   0.002455495277   0.000000000000
				   -0.046073927838   0.001816540482   0.000000000000
				   -0.049641245297   0.000579330382   0.000000000000
				   -0.048455034083   -0.001069816515   0.000000000000
				   -0.042488281658   -0.002610979745   0.000000000000
				   -0.033217606136   -0.003703564375   0.000000000000
				   -0.022475673260   -0.004171717839   0.000000000000
				   -0.012034523206   -0.003994129871   0.000000000000
				   -0.003150868750   -0.003321594978   0.000000000000
				   0.003492820134   -0.002376266446   0.000000000000
				   0.007787637557   -0.001379390800   0.000000000000
				   0.010020260690   -0.000490247975   0.000000000000
				   0.010666311158   0.000231775165   0.000000000000
				   0.010198147631   0.000748139079   0.000000000000
				   0.009043931432   0.001086653758   0.000000000000
				   0.007515740140   0.001271792009   0.000000000000
				   0.005840234241   0.001328399316   0.000000000000
				   0.004191633656   0.001276277238   0.000000000000
				   0.002701816781   0.001133052296   0.000000000000
				   0.001466782737   0.000913547920   0.000000000000
				   0.000563488619   0.000633827242   0.000000000000
				   -0.000038409798   0.000387010997   0.000000000000
				   0.000000000000   0.000000000000   0.000000000000
				   0.000000000000   0.000000000000   0.000000000000
				   0.000262519405   -0.000266225582   0.000000000000
				   0.000186426370   -0.000504007309   0.000000000000
				   0.000182773229   -0.000504990475   0.000000000000
				   0.000103098334   -0.000376975121   0.000000000000
				   -0.000124091992   -0.000147690745   0.000000000000
				   -0.000559394965   0.000144218938   0.000000000000
				   -0.001250996344   0.000467855776   0.000000000000
				   -0.002283665379   0.000818445078   0.000000000000
				   -0.003756126956   0.001199931668   0.000000000000
				   -0.005807381814   0.001632940695   0.000000000000
				   -0.008586877327   0.002134204240   0.000000000000
				   -0.012292904412   0.002719164933   0.000000000000
				   -0.017126100534   0.003381825274   0.000000000000
				   -0.023353512678   0.004103435320   0.000000000000
				   -0.031085352721   0.004799191325   0.000000000000
				   -0.040235344199   0.005320955683   0.000000000000
				   -0.050383575047   0.005438843738   0.000000000000
				   -0.060476469159   0.004853655117   0.000000000000
				   -0.068807966793   0.003272852552   0.000000000000
				   -0.072954201710   0.000523205760   0.000000000000
				   -0.070623985514   -0.002968627330   0.000000000000
				   -0.062088788621   -0.006198216957   0.000000000000
				   -0.049391985899   -0.008481366994   0.000000000000
				   -0.034845659346   -0.009490408564   0.000000000000
				   -0.020638852579   -0.009179785054   0.000000000000
				   -0.008338274166   -0.007827533694   0.000000000000
				   0.001146732375   -0.005869386702   0.000000000000
				   0.007596754118   -0.003749867635   0.000000000000
				   0.011298784860   -0.001803086408   0.000000000000
				   0.012814079744   -0.000180692772   0.000000000000
				   0.012718870905   0.001025048440   0.000000000000
				   0.011576122613   0.001851570357   0.000000000000
				   0.009815457422   0.002346804757   0.000000000000
				   0.007766202699   0.002563153828   0.000000000000
				   0.005686313520   0.002540913014   0.000000000000
				   0.003767223412   0.002311408127   0.000000000000
				   0.002140558533   0.001900634872   0.000000000000
				   0.000911041287   0.001330998417   0.000000000000
				   0.000054799204   0.000751473293   0.000000000000
				   0.000000000000   0.000000000000   0.000000000000
				   0.000000000000   0.000000000000   0.000000000000
				   0.000261480688   -0.000435472089   0.000000000000
				   0.000107846114   -0.000720767961   0.000000000000
				   -0.000051684037   -0.000683741088   0.000000000000
				   -0.000355362323   -0.000442939727   0.000000000000
				   -0.000881656550   -0.000046693968   0.000000000000
				   -0.001705067054   0.000458206393   0.000000000000
				   -0.002884355464   0.001030155273   0.000000000000
				   -0.004535686286   0.001665930246   0.000000000000
				   -0.006790861879   0.002373059940   0.000000000000
				   -0.009838546737   0.003181668718   0.000000000000
				   -0.013876227334   0.004113668697   0.000000000000
				   -0.019158391808   0.005185878658   0.000000000000
				   -0.025916161933   0.006373754040   0.000000000000
				   -0.034440448699   0.007620139462   0.000000000000
				   -0.044770791618   0.008753261662   0.000000000000
				   -0.056651172673   0.009493797336   0.000000000000
				   -0.069389065628   0.009442955818   0.000000000000
				   -0.081553558774   0.008123829156   0.000000000000
				   -0.091073438949   0.005121768889   0.000000000000
				   -0.095276759630   0.000288492077   0.000000000000
				   -0.091843192375   -0.005610675782   0.000000000000
				   -0.081360483996   -0.011003143868   0.000000000000
				   -0.066181625251   -0.014821699156   0.000000000000
				   -0.048805374075   -0.016575453554   0.000000000000
				   -0.031616115893   -0.016189007765   0.000000000000
				   -0.016385804964   -0.014070073252   0.000000000000
				   -0.004236925061   -0.010884508944   0.000000000000
				   0.004449039071   -0.007341010356   0.000000000000
				   0.009880947927   -0.003999958185   0.000000000000
				   0.012631880640   -0.001145925346   0.000000000000
				   0.013313584971   0.001041783537   0.000000000000
				   0.012582017742   0.002595212373   0.000000000000
				   0.010957271043   0.003579328500   0.000000000000
				   0.008855387555   0.004074931282   0.000000000000
				   0.006607983490   0.004148539292   0.000000000000
				   0.004463617639   0.003854635005   0.000000000000
				   0.002592011985   0.003238569535   0.000000000000
				   0.001131071939   0.002333878059   0.000000000000
				   0.000097218455   0.001304838341   0.000000000000
				   0.000000000000   0.000000000000   0.000000000000
				   0.000000000000   0.000000000000   0.000000000000
				   0.000247165177   -0.000542504493   0.000000000000
				   -0.000032090264   -0.000786719507   0.000000000000
				   -0.000422704547   -0.000635943660   0.000000000000
				   -0.001049236842   -0.000208918076   0.000000000000
				   -0.001991046669   0.000426854851   0.000000000000
				   -0.003333176807   0.001222201368   0.000000000000
				   -0.005140030319   0.002128910953   0.000000000000
				   -0.007558090532   0.003152455139   0.000000000000
				   -0.010750491151   0.004307220445   0.000000000000
				   -0.014954323408   0.005633741943   0.000000000000
				   -0.020408278724   0.007154205346   0.000000000000
				   -0.027409251848   0.008876340712   0.000000000000
				   -0.036190024049   0.010736891083   0.000000000000
				   -0.047020289904   0.012610796798   0.000000000000
				   -0.059809898236   0.014198659870   0.000000000000
				   -0.074082430370   0.015050963489   0.000000000000
				   -0.088869187827   0.014578232339   0.000000000000
				   -0.102459217567   0.012144060608   0.000000000000
				   -0.112630714777   0.007272773524   0.000000000000
				   -0.116750792724   -0.000103175848   0.000000000000
				   -0.112654161542   -0.008841816710   0.000000000000
				   -0.101080676422   -0.016773696692   0.000000000000
				   -0.084390483444   -0.022448930333   0.000000000000
				   -0.065038003875   -0.025218119361   0.000000000000
				   -0.045460435059   -0.024934019168   0.000000000000
				   -0.027598652313   -0.022088175696   0.000000000000
				   -0.012821913274   -0.017573012188   0.000000000000
				   -0.001738942032   -0.012390220959   0.000000000000
				   0.005713803598   -0.007370133388   0.000000000000
				   0.010067168568   -0.002972760581   0.000000000000
				   0.011916423496   0.000493900531   0.000000000000
				   0.011979789978   0.003034582268   0.000000000000
				   0.010845801746   0.004718223376   0.000000000000
				   0.009004474579   0.005650377800   0.000000000000
				   0.006853915141   0.005926451902   0.000000000000
				   0.004700804854   0.005630405679   0.000000000000
				   0.002759181779   0.004829122554   0.000000000000
				   0.001203716535   0.003566725384   0.000000000000
				   0.000097206461   0.001993171559   0.000000000000
				   0.000000000000   0.000000000000   0.000000000000
				   0.000000000000   0.000000000000   0.000000000000
				   0.000207693230   -0.000508692040   0.000000000000
				   -0.000245188720   -0.000578625528   0.000000000000
				   -0.000943679678   -0.000197426721   0.000000000000
				   -0.001994569933   0.000520961166   0.000000000000
				   -0.003471549240   0.001493852901   0.000000000000
				   -0.005467946899   0.002677525089   0.000000000000
				   -0.008048566835   0.004024054943   0.000000000000
				   -0.011389614136   0.005556603129   0.000000000000
				   -0.015682858217   0.007300177075   0.000000000000
				   -0.021209367134   0.009305677241   0.000000000000
				   -0.028236912765   0.011586442151   0.000000000000
				   -0.037083369568   0.014123683195   0.000000000000
				   -0.047946454637   0.016785719705   0.000000000000
				   -0.061025384267   0.019341626384   0.000000000000
				   -0.076051009255   0.021321330315   0.000000000000
				   -0.092309823465   0.022080654285   0.000000000000
				   -0.108613282570   0.020854555227   0.000000000000
				   -0.123134346469   0.016904487461   0.000000000000
				   -0.133732718411   0.009762074616   0.000000000000
				   -0.138008972973   -0.000525939467   0.000000000000
				   -0.133964839500   -0.012449988649   0.000000000000
				   -0.122245776650   -0.023288514487   0.000000000000
				   -0.104955427367   -0.031229421240   0.000000000000
				   -0.084334148879   -0.035418103328   0.000000000000
				   -0.062780821068   -0.035559896016   0.000000000000
				   -0.042402938948   -0.032165740855   0.000000000000
				   -0.024872967855   -0.026319280689   0.000000000000
				   -0.011109642329   -0.019328596496   0.000000000000
				   -0.001269505542   -0.012349463562   0.000000000000
				   0.005090259352   -0.006074289593   0.000000000000
				   0.008510214872   -0.000992295479   0.000000000000
				   0.009752818141   0.002844269115   0.000000000000
				   0.009461168576   0.005489367668   0.000000000000
				   0.008191409415   0.007065520551   0.000000000000
				   0.006404176286   0.007696187266   0.000000000000
				   0.004466061590   0.007498541345   0.000000000000
				   0.002640557605   0.006561759885   0.000000000000
				   0.001138497465   0.004943028974   0.000000000000
				   0.000064525527   0.002768966482   0.000000000000
				   0.000000000000   0.000000000000   0.000000000000
				   0.000000000000   0.000000000000   0.000000000000
				   0.000142307338   -0.000249494220   0.000000000000
				   -0.000529696058   0.000040663360   0.000000000000
				   -0.001606576748   0.000811481815   0.000000000000
				   -0.003173491132   0.001952733713   0.000000000000
				   -0.005291508438   0.003375778745   0.000000000000
				   -0.008059220819   0.005054157373   0.000000000000
				   -0.011536556710   0.006950134822   0.000000000000
				   -0.015928012472   0.009114830596   0.000000000000
				   -0.021448674305   0.011587197674   0.000000000000
				   -0.028413705675   0.014425036864   0.000000000000
				   -0.037100832895   0.017617591334   0.000000000000
				   -0.047819144173   0.021094152932   0.000000000000
				   -0.060691026080   0.024618417684   0.000000000000
				   -0.075801906744   0.027816283401   0.000000000000
				   -0.092684110404   0.030020717051   0.000000000000
				   -0.110425881828   0.030404950948   0.000000000000
				   -0.127740312477   0.028083730956   0.000000000000
				   -0.142871428081   0.022293911413   0.000000000000
				   -0.153924264986   0.012636993185   0.000000000000
				   -0.158800097557   -0.000734918235   0.000000000000
				   -0.155589726779   -0.016046166448   0.000000000000
				   -0.144636694607   -0.030114845965   0.000000000000
				   -0.127616681876   -0.040763953342   0.000000000000
				   -0.106442203476   -0.046891015912   0.000000000000
				   -0.083372827938   -0.047967429742   0.000000000000
				   -0.060629861240   -0.044396657243   0.000000000000
				   -0.040223200529   -0.037373830922   0.000000000000
				   -0.023479154561   -0.028510888645   0.000000000000
				   -0.010872947025   -0.019344896245   0.000000000000
				   -0.002107289227   -0.010871245756   0.000000000000
				   0.003265846020   -0.003827790729   0.000000000000
				   0.006042221977   0.001636767059   0.000000000000
				   0.006913255821   0.005537103248   0.000000000000
				   0.006498861681   0.008000843713   0.000000000000
				   0.005321399087   0.009175017847   0.000000000000
				   0.003808617491   0.009212353765   0.000000000000
				   0.002275061666   0.008228440705   0.000000000000
				   0.000963782576   0.006302585207   0.000000000000
				   0.000014524281   0.003547424843   0.000000000000
				   0.000000000000   0.000000000000   0.000000000000
				   0.000000000000   0.000000000000   0.000000000000
				   0.000049463983   0.000324896534   0.000000000000
				   -0.000888938578   0.001224888097   0.000000000000
				   -0.002416029481   0.002596243944   0.000000000000
				   -0.004589151129   0.004329369237   0.000000000000
				   -0.007449213621   0.006342601890   0.000000000000
				   -0.011097704337   0.008642671276   0.000000000000
				   -0.015584403010   0.011214102240   0.000000000000
				   -0.021139492376   0.014147737205   0.000000000000
				   -0.027992886191   0.017497779555   0.000000000000
				   -0.036478883854   0.021320321268   0.000000000000
				   -0.046859879057   0.025557438177   0.000000000000
				   -0.059401303617   0.030053617410   0.000000000000
				   -0.074112461506   0.034428642747   0.000000000000
				   -0.090937440457   0.038136590633   0.000000000000
				   -0.109227599300   0.040311901985   0.000000000000
				   -0.127956666888   0.039991618374   0.000000000000
				   -0.145874622513   0.036251584485   0.000000000000
				   -0.161431151081   0.028381943454   0.000000000000
				   -0.173043340108   0.016075889967   0.000000000000
				   -0.178907275358   -0.000469785322   0.000000000000
				   -0.177155377466   -0.019324664095   0.000000000000
				   -0.167755628116   -0.036944345683   0.000000000000
				   -0.151881865138   -0.050826154371   0.000000000000
				   -0.131003551229   -0.059576669782   0.000000000000
				   -0.107073217472   -0.062309689637   0.000000000000
				   -0.082288924694   -0.059163238081   0.000000000000
				   -0.058964932113   -0.051313760467   0.000000000000
				   -0.038922651687   -0.040620955746   0.000000000000
				   -0.023103304107   -0.029054677387   0.000000000000
				   -0.011462210387   -0.018014837424   0.000000000000
				   -0.003705305875   -0.008588537707   0.000000000000
				   0.000981821057   -0.001083229903   0.000000000000
				   0.003338179144   0.004441751806   0.000000000000
				   0.004052007895   0.008103596928   0.000000000000
				   0.003712254152   0.010067467762   0.000000000000
				   0.002812361274   0.010525885521   0.000000000000
				   0.001720571048   0.009630875528   0.000000000000
				   0.000710357947   0.007497435928   0.000000000000
				   -0.000047717726   0.004250925351   0.000000000000
				   0.000000000000   0.000000000000   0.000000000000
				   0.000000000000   0.000000000000   0.000000000000
				   -0.000064529866   0.001302596402   0.000000000000
				   -0.001312702819   0.003129060450   0.000000000000
				   -0.003351903996   0.005357771549   0.000000000000
				   -0.006204408064   0.007881313779   0.000000000000
				   -0.009883921685   0.010640647579   0.000000000000
				   -0.014491996377   0.013696299626   0.000000000000
				   -0.020062373668   0.017069727847   0.000000000000
				   -0.026845400162   0.020903171209   0.000000000000
				   -0.035073105133   0.025263360524   0.000000000000
				   -0.045078275892   0.030189196729   0.000000000000
				   -0.057078615905   0.035545431251   0.000000000000
				   -0.071261551865   0.041055931316   0.000000000000
				   -0.087499067023   0.046164838758   0.000000000000
				   -0.105592880828   0.050148675956   0.000000000000
				   -0.124767483832   0.051978226738   0.000000000000
				   -0.143979806306   0.050632584017   0.000000000000
				   -0.162112885758   0.045231671527   0.000000000000
				   -0.177870242027   0.035159070336   0.000000000000
				   -0.189968048688   0.020184520123   0.000000000000
				   -0.196899609126   0.000501044696   0.000000000000
				   -0.196929419256   -0.021913074311   0.000000000000
				   -0.189732104986   -0.043296055941   0.000000000000
				   -0.175955952115   -0.060890499618   0.000000000000
				   -0.156496836907   -0.073006579672   0.000000000000
				   -0.132780126028   -0.078314100183   0.000000000000
				   -0.106742963224   -0.076503593866   0.000000000000
				   -0.080828651832   -0.068506793291   0.000000000000
				   -0.057355361447   -0.056276169197   0.000000000000
				   -0.037902809033   -0.042216390163   0.000000000000
				   -0.022869786787   -0.028248353668   0.000000000000
				   -0.012243074419   -0.015955369812   0.000000000000
				   -0.005233135197   -0.005910367103   0.000000000000
				   -0.001058734478   0.001695316414   0.000000000000
				   0.001044311506   0.006944802942   0.000000000000
				   0.001742127174   0.010014926161   0.000000000000
				   0.001604299730   0.011145311639   0.000000000000
				   0.001060589504   0.010540402209   0.000000000000
				   0.000419340396   0.008366636499   0.000000000000
				   -0.000115048160   0.004794283059   0.000000000000
				   0.000000000000   0.000000000000   0.000000000000
				   0.000000000000   0.000000000000   0.000000000000
				   -0.000195761389   0.002781565917   0.000000000000
				   -0.001788307747   0.005930893247   0.000000000000
				   -0.004386063025   0.009325210280   0.000000000000
				   -0.007968852232   0.012869176789   0.000000000000
				   -0.012516420096   0.016546480085   0.000000000000
				   -0.018126087256   0.020497914490   0.000000000000
				   -0.024808651952   0.024798641683   0.000000000000
				   -0.032825385432   0.029652599686   0.000000000000
				   -0.042393774523   0.035130531947   0.000000000000
				   -0.053820776845   0.041230828753   0.000000000000
				   -0.067250333759   0.047705548432   0.000000000000
				   -0.082765055497   0.054125901346   0.000000000000
				   -0.100094402863   0.059747490089   0.000000000000
				   -0.118919126637   0.063694173688   0.000000000000
				   -0.138401973470   0.064837076952   0.000000000000
				   -0.157552600206   0.062176936198   0.000000000000
				   -0.175412208370   0.054927965803   0.000000000000
				   -0.190916716782   0.042581491721   0.000000000000
				   -0.203071399481   0.024985957811   0.000000000000
				   -0.210759311119   0.002314437818   0.000000000000
				   -0.212593481364   -0.023497754336   0.000000000000
				   -0.208108016119   -0.048637223810   0.000000000000
				   -0.197431613710   -0.070255490813   0.000000000000
				   -0.180778562501   -0.086452002960   0.000000000000
				   -0.158827283922   -0.095412159138   0.000000000000
				   -0.132955163916   -0.096202013471   0.000000000000
				   -0.105404875540   -0.089200151014   0.000000000000
				   -0.078812980797   -0.076157418764   0.000000000000
				   -0.055482035065   -0.059779809082   0.000000000000
				   -0.036517003609   -0.042593404585   0.000000000000
				   -0.022431563282   -0.026876782303   0.000000000000
				   -0.012585996000   -0.013653249743   0.000000000000
				   -0.006190551083   -0.003358454877   0.000000000000
				   -0.002403370310   0.004008250601   0.000000000000
				   -0.000466428131   0.008622387751   0.000000000000
				   0.000285648644   0.010779878280   0.000000000000
				   0.000362358810   0.010758098648   0.000000000000
				   0.000122057613   0.008791222458   0.000000000000
				   -0.000183443204   0.005122181167   0.000000000000
				   0.000000000000   0.000000000000   0.000000000000
				   0.000000000000   0.000000000000   0.000000000000
				   -0.000335135363   0.004850350314   0.000000000000
				   -0.002285127119   0.009784899200   0.000000000000
				   -0.005454198239   0.014688416772   0.000000000000
				   -0.009774574730   0.019496811672   0.000000000000
				   -0.015186212140   0.024262441197   0.000000000000
				   -0.021775971352   0.029237395655   0.000000000000
				   -0.029523892942   0.034567971390   0.000000000000
				   -0.038688543504   0.040526077847   0.000000000000
				   -0.049454349937   0.047170696527   0.000000000000
				   -0.062077126380   0.054431051753   0.000000000000
				   -0.076603709746   0.061915409718   0.000000000000
				   -0.092998239625   0.069027340674   0.000000000000
				   -0.110862446411   0.074849503862   0.000000000000
				   -0.129788587941   0.078400445230   0.000000000000
				   -0.148927021994   0.078516990857   0.000000000000
				   -0.167356956647   0.074274164192   0.000000000000
				   -0.184246036881   0.065007739765   0.000000000000
				   -0.198739433914   0.050345834967   0.000000000000
				   -0.210176148169   0.030257620868   0.000000000000
				   -0.217971215363   0.004930776591   0.000000000000
				   -0.221328492078   -0.023807817978   0.000000000000
				   -0.219809960926   -0.052321951459   0.000000000000
				   -0.213090518033   -0.077924185930   0.000000000000
				   -0.200681080249   -0.098663256907   0.000000000000
				   -0.182382651666   -0.112321286106   0.000000000000
				   -0.158715635112   -0.117219713553   0.000000000000
				   -0.131322722018   -0.112874249617   0.000000000000
				   -0.102766052750   -0.100410851948   0.000000000000
				   -0.075894016431   -0.082469854966   0.000000000000
				   -0.052688943220   -0.062100905595   0.000000000000
				   -0.034540588683   -0.042464114124   0.000000000000
				   -0.021244645855   -0.025313023884   0.000000000000
				   -0.012122765784   -0.011537013326   0.000000000000
				   -0.006283658948   -0.001330013574   0.000000000000
				   -0.002868681327   0.005440867271   0.000000000000
				   -0.001091263235   0.009129848554   0.000000000000
				   -0.000333142465   0.010107383770   0.000000000000
				   -0.000159089433   0.008689730790   0.000000000000
				   -0.000245334135   0.005210511583   0.000000000000
				   0.000000000000   0.000000000000   0.000000000000
				   0.000000000000   0.000000000000   0.000000000000
				   -0.000476497522   0.007591808305   0.000000000000
				   -0.002768404044   0.014834632705   0.000000000000
				   -0.006477440018   0.021625339860   0.000000000000
				   -0.011487478293   0.027955577674   0.000000000000
				   -0.017694770918   0.033977339431   0.000000000000
				   -0.025168940749   0.040087206617   0.000000000000
				   -0.033850976352   0.046518616359   0.000000000000
				   -0.043980355149   0.053612736602   0.000000000000
				   -0.055689054823   0.061397497869   0.000000000000
				   -0.069158226842   0.069707423454   0.000000000000
				   -0.084324900043   0.077988299400   0.000000000000
				   -0.101036096636   0.085478378101   0.000000000000
				   -0.118792300172   0.091118370495   0.000000000000
				   -0.137119848235   0.093867109447   0.000000000000
				   -0.155169503574   0.092575979757   0.000000000000
				   -0.172069523795   0.086431293477   0.000000000000
				   -0.187087671638   0.074931598592   0.000000000000
				   -0.199605444741   0.057914743397   0.000000000000
				   -0.209373346214   0.035560329349   0.000000000000
				   -0.216450587453   0.008132373181   0.000000000000
				   -0.220795769104   -0.022724366671   0.000000000000
				   -0.222144636783   -0.053808693545   0.000000000000
				   -0.219856739115   -0.082874778428   0.000000000000
				   -0.212853816338   -0.108181025322   0.000000000000
				   -0.200053343705   -0.127298209985   0.000000000000
				   -0.180949787611   -0.137826050500   0.000000000000
				   -0.156242820717   -0.138217878353   0.000000000000
				   -0.127889916885   -0.128491525821   0.000000000000