<VTKFile type="UnstructuredGrid" version="0.1" byte_order="BigEndian">
	<UnstructuredGrid>
		<Piece NumberOfPoints="1681" NumberOfCells="3200">
			<PointData Scalars="scalars" Vectors = "Velocity">
				<DataArray type="Float32" Name="Velocity" NumberOfComponents="3" Format="ascii">
				   0.000000000000   0.000000000000   0.000000000000
				   0.000000000000   0.000000000000   0.000000000000
				   0.000000000000   0.000000000000   0.000000000000
				   0.000000000000   0.000000000000   0.000000000000
				   0.000000000000   0.000000000000   0.000000000000
				   0.000000000000   0.000000000000   0.000000000000
				   0.000000000000   0.000000000000   0.000000000000
				   0.000000000000   0.000000000000   0.000000000000
				   0.000000000000   0.000000000000   0.000000000000
				   0.000000000000   0.000000000000   0.000000000000
				   0.000000000000   0.000000000000   0.000000000000
				   0.000000000000   0.000000000000   0.000000000000
				   0.000000000000   0.000000000000   0.000000000000
				   0.000000000000   0.000000000000   0.000000000000
				   0.000000000000   0.000000000000   0.000000000000
				   0.000000000000   0.000000000000   0.000000000000
				   0.000000000000   0.000000000000   0.000000000000
				   0.000000000000   0.000000000000   0.000000000000
				   0.000000000000   0.000000000000   0.000000000000
				   0.000000000000   0.000000000000   0.000000000000
				   0.000000000000   0.000000000000   0.000000000000
				   0.000000000000   0.000000000000   0.000000000000
				   0.000000000000   0.000000000000   0.000000000000
				   0.000000000000   0.000000000000   0.000000000000
				   0.000000000000   0.000000000000   0.000000000000
				   0.000000000000   0.000000000000   0.000000000000
				   0.000000000000   0.000000000000   0.000000000000
				   0.000000000000   0.000000000000   0.000000000000
				   0.000000000000   0.000000000000   0.000000000000
				   0.000000000000   0.000000000000   0.000000000000
				   0.000000000000   0.000000000000   0.000000000000
				   0.000000000000   0.000000000000   0.000000000000
				   0.000000000000   0.000000000000   0.000000000000
				   0.000000000000   0.000000000000   0.000000000000
				   0.000000000000   0.000000000000   0.000000000000
				   0.000000000000   0.000000000000   0.000000000000
				   0.000000000000   0.000000000000   0.000000000000
				   0.000000000000   0.000000000000   0.000000000000
				   0.000000000000   0.000000000000   0.000000000000
				   0.000000000000   0.000000000000   0.000000000000
				   0.000000000000   0.000000000000   0.000000000000
				   0.000000000000   0.000000000000   0.000000000000
				   0.000001759952   -0.000003878403   0.000000000000
				   -0.000079757657   0.000038475542   0.000000000000
				   -0.000192551990   0.000070697813   0.000000000000
				   -0.000348837048   0.000095216475   0.000000000000
				   -0.000539596919   0.000112468001   0.000000000000
				   -0.000763805937   0.000123922529   0.000000000000
				   -0.001020725544   0.000130753593   0.000000000000
				   -0.001323690700   0.000134319373   0.000000000000
				   -0.001676865861   0.000134141867   0.000000000000
				   -0.002077046640   0.000130495923   0.000000000000
				   -0.002511885504   0.000124606679   0.000000000000
				   -0.002974111831   0.000117674819   0.000000000000
				   -0.003459364951   0.000110365769   0.000000000000
				   -0.003972067927   0.000101719775   0.000000000000
				   -0.004505717612   0.000090453359   0.000000000000
				   -0.005046244493   0.000075356350   0.000000000000
				   -0.005571352791   0.000054625531   0.000000000000
				   -0.006038989101   0.000026012554   0.000000000000
				   -0.006387716040   -0.000013661227   0.000000000000
				   -0.006525873923   -0.000068983681   0.000000000000
				   -0.006356734227   -0.000126166508   0.000000000000
				   -0.005883738618   -0.000167771337   0.000000000000
				   -0.005184965426   -0.000195105689   0.000000000000
				   -0.004354706354   -0.000206013436   0.000000000000
				   -0.003484564263   -0.000201202929   0.000000000000
				   -0.002644999794   -0.000184185426   0.000000000000
				   -0.001887216469   -0.000158355547   0.000000000000
				   -0.001240096129   -0.000126941548   0.000000000000
				   -0.000715988524   -0.000092692965   0.000000000000
				   -0.000309035280   -0.000057602737   0.000000000000
				   -0.000009495855   -0.000025333715   0.000000000000
				   0.000208980249   0.000004292410   0.000000000000
				   0.000362427338   0.000033051617   0.000000000000
				   0.000451194118   0.000061191661   0.000000000000
				   0.000463852105   0.000084404646   0.000000000000
				   0.000400376515   0.000098295896   0.000000000000
				   0.000278655014   0.000100918517   0.000000000000
				   0.000124079250   0.000090023839   0.000000000000
				   -0.000023214689   0.000060471637   0.000000000000
				   0.000000000000   0.000000000000   0.000000000000
				   0.000000000000   0.000000000000   0.000000000000
				   0.000011398065   -0.000041658766   0.000000000000
				   -0.000143666111   0.000023712490   0.000000000000
				   -0.000365374860   0.000099202304   0.000000000000
				   -0.000666878481   0.000174378388   0.000000000000
				   -0.001042070830   0.000236082670   0.000000000000
				   -0.001493900147   0.000282419964   0.000000000000
				   -0.002014246147   0.000312043975   0.000000000000
				   -0.002616410410   0.000327786119   0.000000000000
				   -0.003301441567   0.000331556362   0.000000000000
				   -0.004067207858   0.000326253773   0.000000000000
				   -0.004898058850   0.000314576536   0.000000000000
				   -0.005785577917   0.000298083078   0.000000000000
				   -0.006720163092   0.000276982662   0.000000000000
				   -0.007706858140   0.000249253743   0.000000000000
				   -0.008729847554   0.000212393898   0.000000000000
				   -0.009761338085   0.000162521861   0.000000000000
				   -0.010758689975   0.000092851520   0.000000000000
				   -0.011642381072   -0.000005521143   0.000000000000
				   -0.012297660619   -0.000143282936   0.000000000000
				   -0.012554255574   -0.000328586092   0.000000000000
				   -0.012233412409   -0.000526898551   0.000000000000
				   -0.011349895441   -0.000692773750   0.000000000000
				   -0.010052129326   -0.000818155096   0.000000000000
				   -0.008512207406   -0.000891021572   0.000000000000
				   -0.006896751404   -0.000909599255   0.000000000000
				   -0.005332103307   -0.000882741402   0.000000000000
				   -0.003910812679   -0.000821203705   0.000000000000
				   -0.002685887354   -0.000736084566   0.000000000000
				   -0.001680109469   -0.000637454707   0.000000000000
				   -0.000885032073   -0.000531582591   0.000000000000
				   -0.000291660316   -0.000426153479   0.000000000000
				   0.000136421272   -0.000323668159   0.000000000000
				   0.000423901133   -0.000226531013   0.000000000000
				   0.000582322456   -0.000137741975   0.000000000000
				   0.000613776768   -0.000062905578   0.000000000000
				   0.000533499974   -0.000006769394   0.000000000000
				   0.000373069542   0.000027993730   0.000000000000
				   0.000171450011   0.000034105352   0.000000000000
				   -0.000029123956   0.000011489487   0.000000000000
				   0.000000000000   0.000000000000   0.000000000000
				   0.000000000000   0.000000000000   0.000000000000
				   0.000000040152   -0.000021410086   0.000000000000
				   -0.000229668130   0.000101895592   0.000000000000
				   -0.000567831248   0.000245034966   0.000000000000
				   -0.001017523112   0.000392381667   0.000000000000
				   -0.001570577570   0.000518884580   0.000000000000
				   -0.002232801464   0.000617827071   0.000000000000
				   -0.002993809884   0.000684800517   0.000000000000
				   -0.003870642585   0.000723942384   0.000000000000
				   -0.004862960378   0.000739374154   0.000000000000
				   -0.005968601154   0.000736528662   0.000000000000
				   -0.007167922670   0.000719819919   0.000000000000
				   -0.008451041291   0.000691543226   0.000000000000
				   -0.009803273948   0.000651691205   0.000000000000
				   -0.011229311480   0.000597004954   0.000000000000
				   -0.012703497322   0.000522387931   0.000000000000
				   -0.014184677598   0.000418353897   0.000000000000
				   -0.015610973518   0.000269528970   0.000000000000
				   -0.016868138793   0.000058051258   0.000000000000
				   -0.017793026944   -0.000235713087   0.000000000000
				   -0.018146406956   -0.000625646555   0.000000000000
				   -0.017681692486   -0.001052903273   0.000000000000
				   -0.016431023257   -0.001428450985   0.000000000000
				   -0.014605494998   -0.001720217072   0.000000000000
				   -0.012443592708   -0.001902070160   0.000000000000
				   -0.010175967288   -0.001969801847   0.000000000000
				   -0.007974911258   -0.001938441254   0.000000000000
				   -0.005967348560   -0.001829420079   0.000000000000
				   -0.004227199937   -0.001666717308   0.000000000000
				   -0.002786750491   -0.001471759167   0.000000000000
				   -0.001634121392   -0.001257655013   0.000000000000
				   -0.000760455154   -0.001038963250   0.000000000000
				   -0.000119729867   -0.000821906209   0.000000000000
				   0.000318628372   -0.000613443165   0.000000000000
				   0.000571601765   -0.000420813660   0.000000000000
				   0.000649466024   -0.000253463559   0.000000000000
				   0.000579888641   -0.000120038739   0.000000000000
				   0.000406927597   -0.000027360022   0.000000000000
				   0.000183661556   0.000012028642   0.000000000000
				   -0.000036416252   -0.000012810110   0.000000000000
				   0.000000000000   0.000000000000   0.000000000000
				   0.000000000000   0.000000000000   0.000000000000
				   -0.000018750975   0.000069149470   0.000000000000
				   -0.000316135039   0.000295169649   0.000000000000
				   -0.000765127252   0.000539979506   0.000000000000
				   -0.001358709705   0.000784245436   0.000000000000
				   -0.002083823683   0.000996232932   0.000000000000
				   -0.002946262800   0.001165913238   0.000000000000
				   -0.003932064614   0.001285914115   0.000000000000
				   -0.005061548183   0.001361332263   0.000000000000
				   -0.006334129335   0.001397794891   0.000000000000
				   -0.007748904119   0.001403091032   0.000000000000
				   -0.009283568305   0.001383601223   0.000000000000
				   -0.010926985819   0.001342868543   0.000000000000
				   -0.012659134644   0.001280954522   0.000000000000
				   -0.014483317792   0.001192586926   0.000000000000
				   -0.016364225241   0.001068171680   0.000000000000
				   -0.018247886379   0.000890974707   0.000000000000
				   -0.020054024389   0.000635632449   0.000000000000
				   -0.021636973970   0.000271113657   0.000000000000
				   -0.022791043204   -0.000237966667   0.000000000000
				   -0.023216840967   -0.000912053501   0.000000000000
				   -0.022611400019   -0.001656457008   0.000000000000
				   -0.021028418072   -0.002323805972   0.000000000000
				   -0.018736390773   -0.002850590963   0.000000000000
				   -0.016030691401   -0.003190761227   0.000000000000
				   -0.013196312426   -0.003334022967   0.000000000000
				   -0.010443817195   -0.003304005292   0.000000000000
				   -0.007928596307   -0.003137784407   0.000000000000
				   -0.005741303606   -0.002876568639   0.000000000000
				   -0.003921199735   -0.002556567614   0.000000000000
				   -0.002452655165   -0.002200256024   0.000000000000
				   -0.001327683405   -0.001831838451   0.000000000000
				   -0.000492249734   -0.001462697906   0.000000000000
				   0.000090153102   -0.001105510141   0.000000000000
				   0.000443127019   -0.000773068714   0.000000000000
				   0.000584648758   -0.000480905735   0.000000000000
				   0.000551353301   -0.000243462404   0.000000000000
				   0.000394151418   -0.000073553026   0.000000000000
				   0.000173949525   0.000014551052   0.000000000000
				   -0.000044244793   -0.000007371497   0.000000000000
				   0.000000000000   0.000000000000   0.000000000000
				   0.000000000000   0.000000000000   0.000000000000
				   -0.000040009033   0.000246458979   0.000000000000
				   -0.000399516412   0.000625665475   0.000000000000
				   -0.000951756729   0.001011760634   0.000000000000
				   -0.001680708490   0.001380557690   0.000000000000
				   -0.002566924029   0.001699583209   0.000000000000
				   -0.003614878925   0.001957898073   0.000000000000
				   -0.004806850980   0.002145720072   0.000000000000
				   -0.006165980768   0.002269250075   0.000000000000
				   -0.007691482826   0.002335325422   0.000000000000
				   -0.009383917155   0.002354063318   0.000000000000
				   -0.011219027786   0.002334000594   0.000000000000
				   -0.013184831243   0.002280112759   0.000000000000
				   -0.015256387422   0.002192309859   0.000000000000
				   -0.017435223265   0.002062548323   0.000000000000
				   -0.019676667543   0.001875814972   0.000000000000
				   -0.021914612734   0.001606263130   0.000000000000
				   -0.024052258786   0.001214140619   0.000000000000
				   -0.025916117265   0.000651423312   0.000000000000
				   -0.027262052398   -0.000133348855   0.000000000000
				   -0.027737530100   -0.001168088595   0.000000000000
				   -0.026992492353   -0.002318535849   0.000000000000
				   -0.025103676374   -0.003364082298   0.000000000000
				   -0.022391477751   -0.004195312395   0.000000000000
				   -0.019201392724   -0.004739616349   0.000000000000
				   -0.015867466739   -0.004981347845   0.000000000000
				   -0.012634317541   -0.004956480151   0.000000000000
				   -0.009681561053   -0.004721751675   0.000000000000
				   -0.007112862772   -0.004340013664   0.000000000000
				   -0.004971146296   -0.003866114603   0.000000000000
				   -0.003235204553   -0.003334437290   0.000000000000
				   -0.001896128512   -0.002781582459   0.000000000000
				   -0.000892085610   -0.002225691080   0.000000000000
				   -0.000181121109   -0.001686586012   0.000000000000
				   0.000266317170   -0.001183826116   0.000000000000
				   0.000474407032   -0.000740590968   0.000000000000
				   0.000486157465   -0.000377837145   0.000000000000
				   0.000357045305   -0.000114576594   0.000000000000
				   0.000154249023   0.000033065203   0.000000000000
				   -0.000048478186   0.000023435115   0.000000000000
				   0.000000000000   0.000000000000   0.000000000000
				   0.000000000000   0.000000000000   0.000000000000
				   -0.000062201279   0.000518113760   0.000000000000
				   -0.000477969918   0.001108861853   0.000000000000
				   -0.001124721428   0.001684006305   0.000000000000
				   -0.001978593160   0.002212212493   0.000000000000
				   -0.003013771972   0.002664354719   0.000000000000
				   -0.004232988286   0.003031289913   0.000000000000
				   -0.005614469081   0.003301838189   0.000000000000
				   -0.007183340223   0.003484424809   0.000000000000
				   -0.008938209482   0.003587502552   0.000000000000
				   -0.010880961827   0.003623854157   0.000000000000
				   -0.012985853278   0.003604261690   0.000000000000
				   -0.015240462611   0.003535103477   0.000000000000
				   -0.017615504048   0.003415849523   0.000000000000
				   -0.020110773303   0.003234863346   0.000000000000
				   -0.022673203350   0.002969583587   0.000000000000
				   -0.025225946375   0.002582295179   0.000000000000
				   -0.027657198127   0.002017136438   0.000000000000
				   -0.029768028558   0.001207309086   0.000000000000
				   -0.031279606154   0.000079587324   0.000000000000
				   -0.031791264869   -0.001406825266   0.000000000000
				   -0.030908928720   -0.003067829974   0.000000000000
				   -0.028729091161   -0.004586854062   0.000000000000
				   -0.025619827865   -0.005796208720   0.000000000000
				   -0.021975014628   -0.006592963386   0.000000000000
				   -0.018177688491   -0.006955309187   0.000000000000
				   -0.014506730221   -0.006934744304   0.000000000000
				   -0.011164821487   -0.006613528460   0.000000000000
				   -0.008265999257   -0.006082274938   0.000000000000
				   -0.005853279677   -0.005419347776   0.000000000000
				   -0.003897207351   -0.004674106344   0.000000000000
				   -0.002384819290   -0.003898592085   0.000000000000
				   -0.001245170158   -0.003119045017   0.000000000000
				   -0.000429907861   -0.002363670131   0.000000000000
				   0.000096579151   -0.001659794917   0.000000000000
				   0.000363570013   -0.001039149550   0.000000000000
				   0.000418208733   -0.000529453501   0.000000000000
				   0.000318849692   -0.000155880355   0.000000000000
				   0.000136893154   0.000061306952   0.000000000000
				   -0.000047402806   0.000076257641   0.000000000000
				   0.000000000000   0.000000000000   0.000000000000
				   0.000000000000   0.000000000000   0.000000000000
				   -0.000082438469   0.000874192902   0.000000000000
				   -0.000547913475   0.001737485061   0.000000000000
				   -0.001277673535   0.002549454770   0.000000000000
				   -0.002241504668   0.003272873716   0.000000000000
				   -0.003408474527   0.003883629752   0.000000000000
				   -0.004779980637   0.004377122224   0.000000000000
				   -0.006330144100   0.004742482353   0.000000000000
				   -0.008085126853   0.004992145883   0.000000000000
				   -0.010042394011   0.005137059280   0.000000000000
				   -0.012204820013   0.005193155216   0.000000000000
				   -0.014545523606   0.005173555272   0.000000000000
				   -0.017052070340   0.005085922999   0.000000000000
				   -0.019691756714   0.004928614086   0.000000000000
				   -0.022463439628   0.004685023940   0.000000000000
				   -0.025307244893   0.004323683441   0.000000000000
				   -0.028137181175   0.003794073141   0.000000000000
				   -0.030828729068   0.003021424901   0.000000000000
				   -0.033161357157   0.001914964725   0.000000000000
				   -0.034825396266   0.000375681397   0.000000000000
				   -0.035374438286   -0.001651300973   0.000000000000
				   -0.034367066425   -0.003923672286   0.000000000000
				   -0.031910455483   -0.006010002249   0.000000000000
				   -0.028416599569   -0.007671313003   0.000000000000
				   -0.024328798308   -0.008767044730   0.000000000000
				   -0.020083113004   -0.009267385712   0.000000000000
				   -0.015997285316   -0.009243744433   0.000000000000
				   -0.012299047449   -0.008810862110   0.000000000000
				   -0.009111652966   -0.008094532973   0.000000000000
				   -0.006474768351   -0.007202896331   0.000000000000
				   -0.004347167220   -0.006203922445   0.000000000000
				   -0.002707528800   -0.005168068177   0.000000000000
				   -0.001473482519   -0.004130476709   0.000000000000
				   -0.000588526761   -0.003128345993   0.000000000000
				   -0.000010196651   -0.002197158538   0.000000000000
				   0.000295647545   -0.001377621050   0.000000000000
				   0.000378827065   -0.000704177414   0.000000000000
				   0.000299398462   -0.000207291408   0.000000000000
				   0.000131029525   0.000085984684   0.000000000000
				   -0.000042024457   0.000135510783   0.000000000000
				   0.000000000000   0.000000000000   0.000000000000
				   0.000000000000   0.000000000000   0.000000000000
				   -0.000101325321   0.001302620772   0.000000000000
				   -0.000610687571   0.002504932991   0.000000000000
				   -0.001412143969   0.003605405759   0.000000000000
				   -0.002471005587   0.004564290132   0.000000000000
				   -0.003752849078   0.005362519049   0.000000000000
				   -0.005258407995   0.006002530307   0.000000000000
				   -0.006957864518   0.006475602299   0.000000000000
				   -0.008877769693   0.006800291142   0.000000000000
				   -0.011013932530   0.006991328492   0.000000000000
				   -0.013369852499   0.007068618524   0.000000000000
				   -0.015917825681   0.007047818205   0.000000000000
				   -0.018646040097   0.006937558173   0.000000000000
				   -0.021519645707   0.006734323945   0.000000000000
				   -0.024537628303   0.006415720384   0.000000000000
				   -0.027635031386   0.005940130380   0.000000000000
				   -0.030719212234   0.005241606348   0.000000000000
				   -0.033656345945   0.004222997739   0.000000000000
				   -0.036207839104   0.002766483173   0.000000000000
				   -0.038035364563   0.000742410076   0.000000000000
				   -0.038645264081   -0.001924999238   0.000000000000
				   -0.037536713983   -0.004928386189   0.000000000000
				   -0.034812291572   -0.007697277839   0.000000000000
				   -0.030924449358   -0.009902579102   0.000000000000
				   -0.026371003435   -0.011354814285   0.000000000000
				   -0.021651652741   -0.012012174963   0.000000000000
				   -0.017134258624   -0.011970618407   0.000000000000
				   -0.013078758855   -0.011387130512   0.000000000000
				   -0.009619227166   -0.010434181439   0.000000000000
				   -0.006788971490   -0.009259277685   0.000000000000
				   -0.004530247617   -0.007954325334   0.000000000000
				   -0.002807480613   -0.006611881232   0.000000000000
				   -0.001522869286   -0.005276344290   0.000000000000
				   -0.000608692557   -0.003993829125   0.000000000000
				   -0.000013926256   -0.002807728767   0.000000000000
				   0.000301199588   -0.001767616742   0.000000000000
				   0.000388891178   -0.000914416784   0.000000000000
				   0.000310341263   -0.000282557535   0.000000000000
				   0.000140352343   0.000092920124   0.000000000000
				   -0.000034263594   0.000182134931   0.000000000000
				   0.000000000000   0.000000000000   0.000000000000
				   0.000000000000   0.000000000000   0.000000000000
				   -0.000119628830   0.001791142098   0.000000000000
				   -0.000666359414   0.003397256465   0.000000000000
				   -0.001527601663   0.004837401831   0.000000000000
				   -0.002665981346   0.006072149525   0.000000000000
				   -0.004044935623   0.007087338315   0.000000000000
				   -0.005665152261   0.007894428602   0.000000000000
				   -0.007493446720   0.008488480145   0.000000000000
				   -0.009556453519   0.008896340754   0.000000000000
				   -0.011848170587   0.009137961664   0.000000000000
				   -0.014372579888   0.009238158847   0.000000000000
				   -0.017101659197   0.009215391227   0.000000000000
				   -0.020024983707   0.009079157019   0.000000000000
				   -0.023106917276   0.008823720536   0.000000000000
				   -0.026348063562   0.008420102500   0.000000000000
				   -0.029681101522   0.007815006053   0.000000000000
				   -0.033010257498   0.006925332848   0.000000000000
				   -0.036196505108   0.005628817287   0.000000000000
				   -0.038987272774   0.003774724211   0.000000000000
				   -0.041017608892   0.001193972222   0.000000000000
				   -0.041741853665   -0.002219487896   0.000000000000
				   -0.040578335878   -0.006089421811   0.000000000000
				   -0.037600360381   -0.009679655208   0.000000000000
				   -0.033295413966   -0.012544342601   0.000000000000
				   -0.028224557335   -0.014426467302   0.000000000000
				   -0.022968195173   -0.015263541499   0.000000000000
				   -0.017962671653   -0.015180725462   0.000000000000
				   -0.013513468862   -0.014390659833   0.000000000000
				   -0.009770981825   -0.013129155359   0.000000000000
				   -0.006760543422   -0.011597478663   0.000000000000
				   -0.004402161988   -0.009919529289   0.000000000000
				   -0.002638469703   -0.008214909475   0.000000000000
				   -0.001349993269   -0.006536934141   0.000000000000
				   -0.000452988025   -0.004939368418   0.000000000000
				   0.000115201605   -0.003471979214   0.000000000000
				   0.000401873670   -0.002192058952   0.000000000000
				   0.000462385997   -0.001146203543   0.000000000000
				   0.000359307850   -0.000371600796   0.000000000000
				   0.000168265371   0.000089369063   0.000000000000
				   -0.000022168963   0.000214089589   0.000000000000
				   0.000000000000   0.000000000000   0.000000000000
				   0.000000000000   0.000000000000   0.000000000000
				   -0.000138239638   0.002342523919   0.000000000000
				   -0.000715925022   0.004417129987   0.000000000000
				   -0.001625806303   0.006250751955   0.000000000000
				   -0.002829135765   0.007804460098   0.000000000000
				   -0.004288257791   0.009069136496   0.000000000000
				   -0.006004443104   0.010066839460   0.000000000000
				   -0.007942056719   0.010797650070   0.000000000000
				   -0.010127876154   0.011298817684   0.000000000000
				   -0.012554342476   0.011596979382   0.000000000000
				   -0.015226082688   0.011723038233   0.000000000000
				   -0.018115411146   0.011698913781   0.000000000000
				   -0.021214129012   0.011535396445   0.000000000000
				   -0.024487439255   0.011224555182   0.000000000000
				   -0.027939806407   0.010730618560   0.000000000000
				   -0.031505098168   0.009987706373   0.000000000000
				   -0.035088971204   0.008893147704   0.000000000000
				   -0.038552894062   0.007294369576   0.000000000000
				   -0.041635632670   0.004999552921   0.000000000000
				   -0.043947355390   0.001788254704   0.000000000000
				   -0.044881658249   -0.002492617783   0.000000000000
				   -0.043742535179   -0.007399711828   0.000000000000
				   -0.040537637923   -0.011997107359   0.000000000000
				   -0.035782408069   -0.015681989732   0.000000000000
				   -0.030112891343   -0.018100124048   0.000000000000
				   -0.024211895413   -0.019152332260   0.000000000000
				   -0.018609539552   -0.018996581307   0.000000000000
				   -0.013678580743   -0.017918901849   0.000000000000
				   -0.009598699183   -0.016242874335   0.000000000000
				   -0.006389997358   -0.014246277902   0.000000000000
				   -0.003944511993   -0.012098478945   0.000000000000
				   -0.002173782781   -0.009954255940   0.000000000000
				   -0.000927035502   -0.007875173538   0.000000000000
				   -0.000096862675   -0.005919992577   0.000000000000
				   0.000396305399   -0.004141674130   0.000000000000
				   0.000610834543   -0.002602819262   0.000000000000
				   0.000607174680   -0.001354092498   0.000000000000
				   0.000450118495   -0.000434658474   0.000000000000
				   0.000216638139   0.000107589209   0.000000000000
				   -0.000003291541   0.000251821338   0.000000000000
				   0.000000000000   0.000000000000   0.000000000000
				   0.000000000000   0.000000000000   0.000000000000
				   -0.000156203832   0.002961810515   0.000000000000
				   -0.000758490252   0.005566335545   0.000000000000
				   -0.001706609398   0.007846328507   0.000000000000
				   -0.002961206683   0.009761782877   0.000000000000
				   -0.004484309380   0.011309066576   0.000000000000
				   -0.006278437768   0.012522096098   0.000000000000
				   -0.008306627786   0.013406813624   0.000000000000
				   -0.010596199699   0.014012746603   0.000000000000
				   -0.013138651445   0.014374680685   0.000000000000
				   -0.015939616237   0.014531177255   0.000000000000
				   -0.018972429934   0.014508973784   0.000000000000
				   -0.022232149695   0.014321429520   0.000000000000
				   -0.025686896701   0.013959215817   0.000000000000
				   -0.029348159246   0.013380015040   0.000000000000
				   -0.033155914074   0.012503693466   0.000000000000
				   -0.037023593730   0.011204458733   0.000000000000
				   -0.040820820522   0.009293724072   0.000000000000
				   -0.044284700422   0.006528120525   0.000000000000
				   -0.047002940796   0.002617566213   0.000000000000
				   -0.048297249496   -0.002664028562   0.000000000000
				   -0.047314800967   -0.008815142202   0.000000000000
				   -0.043952976698   -0.014659721413   0.000000000000
				   -0.038744822119   -0.019381705070   0.000000000000
				   -0.032405824600   -0.022488199613   0.000000000000
				   -0.025733509279   -0.023818234809   0.000000000000
				   -0.019376398784   -0.023560136124   0.000000000000
				   -0.013806794285   -0.022090909097   0.000000000000
				   -0.009262427958   -0.019853337752   0.000000000000
				   -0.005774572819   -0.017236243550   0.000000000000
				   -0.003207430092   -0.014477668064   0.000000000000
				   -0.001433724734   -0.011782696977   0.000000000000
				   -0.000257993230   -0.009221820235   0.000000000000
				   0.000462790491   -0.006854999063   0.000000000000
				   0.000834285379   -0.004732816683   0.000000000000
				   0.000932274344   -0.002918571408   0.000000000000
				   0.000825980645   -0.001463811006   0.000000000000
				   0.000584080612   -0.000408558050   0.000000000000
				   0.000285902710   0.000195547916   0.000000000000
				   0.000023011379   0.000326439192   0.000000000000
				   0.000000000000   0.000000000000   0.000000000000
				   0.000000000000   0.000000000000   0.000000000000
				   -0.000172683900   0.003657042536   0.000000000000
				   -0.000793986425   0.006854454403   0.000000000000
				   -0.001771098248   0.009635716808   0.000000000000
				   -0.003064615038   0.011958035887   0.000000000000
				   -0.004637134497   0.013823567938   0.000000000000
				   -0.006493187324   0.015279274883   0.000000000000
				   -0.008595625295   0.016337573233   0.000000000000
				   -0.010972838455   0.017062167967   0.000000000000
				   -0.013615892303   0.017497879730   0.000000000000
				   -0.016531744998   0.017693313534   0.000000000000
				   -0.019695589409   0.017682253771   0.000000000000
				   -0.023107415158   0.017482517934   0.000000000000
				   -0.026741364102   0.017084005817   0.000000000000
				   -0.030620640467   0.016437573299   0.000000000000
				   -0.034697807280   0.015446785629   0.000000000000
				   -0.038902034407   0.013959517930   0.000000000000
				   -0.043121083301   0.011745041918   0.000000000000
				   -0.047100416787   0.008494551669   0.000000000000
				   -0.050410619403   0.003822283511   0.000000000000
				   -0.052293445095   -0.002609277627   0.000000000000
				   -0.051701704918   -0.010257469031   0.000000000000
				   -0.048382392747   -0.017655547353   0.000000000000
				   -0.042864446572   -0.023704808269   0.000000000000
				   -0.035907178998   -0.027731002736   0.000000000000
				   -0.028387222091   -0.029475492776   0.000000000000
				   -0.021077021030   -0.029133161442   0.000000000000