<VTKFile type="UnstructuredGrid" version="0.1" byte_order="BigEndian">
	<UnstructuredGrid>
		<Piece NumberOfPoints="1681" NumberOfCells="3200">
			<PointData Scalars="scalars" Vectors = "Velocity">
				<DataArray type="Float32" Name="Velocity" NumberOfComponents="3" Format="ascii">
				   0.000000000000   0.000000000000   0.000000000000
				   0.000000000000   0.000000000000   0.000000000000
				   0.000000000000   0.000000000000   0.000000000000
				   0.000000000000   0.000000000000   0.000000000000
				   0.000000000000   0.000000000000   0.000000000000
				   0.000000000000   0.000000000000   0.000000000000
				   0.000000000000   0.000000000000   0.000000000000
				   0.000000000000   0.000000000000   0.000000000000
				   0.000000000000   0.000000000000   0.000000000000
				   0.000000000000   0.000000000000   0.000000000000
				   0.000000000000   0.000000000000   0.000000000000
				   0.000000000000   0.000000000000   0.000000000000
				   0.000000000000   0.000000000000   0.000000000000
				   0.000000000000   0.000000000000   0.000000000000
				   0.000000000000   0.000000000000   0.000000000000
				   0.000000000000   0.000000000000   0.000000000000
				   0.000000000000   0.000000000000   0.000000000000
				   0.000000000000   0.000000000000   0.000000000000
				   0.000000000000   0.000000000000   0.000000000000
				   0.000000000000   0.000000000000   0.000000000000
				   0.000000000000   0.000000000000   0.000000000000
				   0.000000000000   0.000000000000   0.000000000000
				   0.000000000000   0.000000000000   0.000000000000
				   0.000000000000   0.000000000000   0.000000000000
				   0.000000000000   0.000000000000   0.000000000000
				   0.000000000000   0.000000000000   0.000000000000
				   0.000000000000   0.000000000000   0.000000000000
				   0.000000000000   0.000000000000   0.000000000000
				   0.000000000000   0.000000000000   0.000000000000
				   0.000000000000   0.000000000000   0.000000000000
				   0.000000000000   0.000000000000   0.000000000000
				   0.000000000000   0.000000000000   0.000000000000
				   0.000000000000   0.000000000000   0.000000000000
				   0.000000000000   0.000000000000   0.000000000000
				   0.000000000000   0.000000000000   0.000000000000
				   0.000000000000   0.000000000000   0.000000000000
				   0.000000000000   0.000000000000   0.000000000000
				   0.000000000000   0.000000000000   0.000000000000
				   0.000000000000   0.000000000000   0.000000000000
				   0.000000000000   0.000000000000   0.000000000000
				   0.000000000000   0.000000000000   0.000000000000
				   0.000000000000   0.000000000000   0.000000000000
				   -0.000086219314   -0.000094502809   0.000000000000
				   -0.000150755401   -0.000086068189   0.000000000000
				   -0.000232398954   -0.000063950209   0.000000000000
				   -0.000368506750   -0.000044165217   0.000000000000
				   -0.000561650520   -0.000027369678   0.000000000000
				   -0.000817620895   -0.000015428966   0.000000000000
				   -0.001124697139   -0.000007844818   0.000000000000
				   -0.001482981758   -0.000004547712   0.000000000000
				   -0.001883240923   -0.000004252367   0.000000000000
				   -0.002324615964   -0.000006581595   0.000000000000
				   -0.002800903388   -0.000011241674   0.000000000000
				   -0.003313120211   -0.000017919202   0.000000000000
				   -0.003857873933   -0.000026930544   0.000000000000
				   -0.004438598059   -0.000037819283   0.000000000000
				   -0.005044277474   -0.000052585296   0.000000000000
				   -0.005656490662   -0.000073045486   0.000000000000
				   -0.006245231622   -0.000103554906   0.000000000000
				   -0.006750726441   -0.000148044251   0.000000000000
				   -0.007086482271   -0.000210418301   0.000000000000
				   -0.007122636644   -0.000290074877   0.000000000000
				   -0.006736791847   -0.000365000962   0.000000000000
				   -0.005966272951   -0.000415318208   0.000000000000
				   -0.004948069078   -0.000443727779   0.000000000000
				   -0.003828595409   -0.000447413194   0.000000000000
				   -0.002736633251   -0.000429105182   0.000000000000
				   -0.001758467431   -0.000395066602   0.000000000000
				   -0.000943618873   -0.000351393656   0.000000000000
				   -0.000306537299   -0.000304838213   0.000000000000
				   0.000159449329   -0.000260333343   0.000000000000
				   0.000475374161   -0.000218804719   0.000000000000
				   0.000660896098   -0.000182525881   0.000000000000
				   0.000742923915   -0.000150554835   0.000000000000
				   0.000743407732   -0.000123126869   0.000000000000
				   0.000683457373   -0.000100710743   0.000000000000
				   0.000583944154   -0.000084039540   0.000000000000
				   0.000463219901   -0.000073355976   0.000000000000
				   0.000336055871   -0.000069137821   0.000000000000
				   0.000214563860   -0.000069720515   0.000000000000
				   0.000096563916   -0.000062148301   0.000000000000
				   0.000000000000   0.000000000000   0.000000000000
				   0.000000000000   0.000000000000   0.000000000000
				   -0.000111227376   -0.000119532420   0.000000000000
				   -0.000269584250   -0.000103361228   0.000000000000
				   -0.000480304419   -0.000041178119   0.000000000000
				   -0.000773925702   0.000031204514   0.000000000000
				   -0.001167062317   0.000094284406   0.000000000000
				   -0.001666655146   0.000144557484   0.000000000000
				   -0.002264053570   0.000177417392   0.000000000000
				   -0.002955593729   0.000196283215   0.000000000000
				   -0.003732181914   0.000202671935   0.000000000000
				   -0.004587908740   0.000199947129   0.000000000000
				   -0.005514890593   0.000189901064   0.000000000000
				   -0.006511369432   0.000173190210   0.000000000000
				   -0.007570693297   0.000150578152   0.000000000000
				   -0.008696526000   0.000119582082   0.000000000000
				   -0.009866193020   0.000077134411   0.000000000000
				   -0.011042806838   0.000014126765   0.000000000000
				   -0.012166869506   -0.000079667557   0.000000000000
				   -0.013125141339   -0.000218807089   0.000000000000
				   -0.013752231265   -0.000414704782   0.000000000000
				   -0.013806035973   -0.000668703986   0.000000000000
				   -0.013066903787   -0.000926060221   0.000000000000
				   -0.011618205994   -0.001124643830   0.000000000000
				   -0.009714529632   -0.001252364020   0.000000000000
				   -0.007622933707   -0.001297139573   0.000000000000
				   -0.005578515484   -0.001265663798   0.000000000000
				   -0.003736503728   -0.001175871501   0.000000000000
				   -0.002188744070   -0.001049128192   0.000000000000
				   -0.000964290584   -0.000905478364   0.000000000000
				   -0.000053713946   -0.000761036043   0.000000000000
				   0.000581077010   -0.000621247796   0.000000000000
				   0.000972385879   -0.000494533333   0.000000000000
				   0.001169006038   -0.000380745905   0.000000000000
				   0.001210463254   -0.000281880328   0.000000000000
				   0.001136156733   -0.000200066167   0.000000000000
				   0.000983215819   -0.000138261308   0.000000000000
				   0.000784612616   -0.000098282145   0.000000000000
				   0.000565718938   -0.000079749104   0.000000000000
				   0.000348987275   -0.000077222267   0.000000000000
				   0.000142011119   -0.000066072186   0.000000000000
				   0.000000000000   0.000000000000   0.000000000000
				   0.000000000000   0.000000000000   0.000000000000
				   -0.000136875131   -0.000066851171   0.000000000000
				   -0.000385249352   -0.000000737922   0.000000000000
				   -0.000728983624   0.000132762018   0.000000000000
				   -0.001194109508   0.000281202538   0.000000000000
				   -0.001788887110   0.000417538365   0.000000000000
				   -0.002531200931   0.000527531892   0.000000000000
				   -0.003404680380   0.000605535516   0.000000000000
				   -0.004414476899   0.000652993192   0.000000000000
				   -0.005544411982   0.000674930750   0.000000000000
				   -0.006792784625   0.000676539501   0.000000000000
				   -0.008144572540   0.000662160624   0.000000000000
				   -0.009599394081   0.000634781817   0.000000000000
				   -0.011143474985   0.000593227056   0.000000000000
				   -0.012780339171   0.000534787496   0.000000000000
				   -0.014474621417   0.000448623478   0.000000000000
				   -0.016169979555   0.000320171421   0.000000000000
				   -0.017779180264   0.000124197924   0.000000000000
				   -0.019138278150   -0.000165803741   0.000000000000
				   -0.020011290522   -0.000577134367   0.000000000000
				   -0.020058166853   -0.001113212719   0.000000000000
				   -0.018984478535   -0.001671964052   0.000000000000
				   -0.016927188095   -0.002122857267   0.000000000000
				   -0.014244589637   -0.002422339129   0.000000000000
				   -0.011304059381   -0.002545727513   0.000000000000
				   -0.008427575372   -0.002504586438   0.000000000000
				   -0.005825935868   -0.002336614595   0.000000000000
				   -0.003625197014   -0.002085722439   0.000000000000
				   -0.001868416157   -0.001794066056   0.000000000000
				   -0.000544020923   -0.001493368092   0.000000000000
				   0.000399077087   -0.001198746298   0.000000000000
				   0.001002924684   -0.000926704952   0.000000000000
				   0.001332994331   -0.000680773193   0.000000000000
				   0.001443896802   -0.000465598391   0.000000000000
				   0.001388851432   -0.000286216151   0.000000000000
				   0.001218527164   -0.000148731125   0.000000000000
				   0.000977003860   -0.000056310325   0.000000000000
				   0.000699419138   -0.000008290102   0.000000000000
				   0.000419540281   0.000002170377   0.000000000000
				   0.000161813168   -0.000004588390   0.000000000000
				   0.000000000000   0.000000000000   0.000000000000
				   0.000000000000   0.000000000000   0.000000000000
				   -0.000166213601   0.000056508817   0.000000000000
				   -0.000496100484   0.000235391757   0.000000000000
				   -0.000972215302   0.000476785795   0.000000000000
				   -0.001605242258   0.000732501050   0.000000000000
				   -0.002402601442   0.000963694324   0.000000000000
				   -0.003378534625   0.001155433309   0.000000000000
				   -0.004518314551   0.001294088552   0.000000000000
				   -0.005825692528   0.001384415160   0.000000000000
				   -0.007287935380   0.001430673700   0.000000000000
				   -0.008900302337   0.001442297392   0.000000000000
				   -0.010648161001   0.001426183018   0.000000000000
				   -0.012527651720   0.001385970457   0.000000000000
				   -0.014520556441   0.001322019314   0.000000000000
				   -0.016627775714   0.001224703311   0.000000000000
				   -0.018800659825   0.001079638932   0.000000000000
				   -0.020964627165   0.000856935812   0.000000000000
				   -0.023003982343   0.000518265029   0.000000000000
				   -0.024709682617   0.000014920368   0.000000000000
				   -0.025781042521   -0.000697000627   0.000000000000
				   -0.025794780893   -0.001624735728   0.000000000000
				   -0.024399960732   -0.002603777035   0.000000000000
				   -0.021792081436   -0.003409901691   0.000000000000
				   -0.018421961444   -0.003953659941   0.000000000000
				   -0.014740475833   -0.004192595236   0.000000000000
				   -0.011141935991   -0.004147290561   0.000000000000
				   -0.007881041156   -0.003880540663   0.000000000000
				   -0.005111846643   -0.003468179987   0.000000000000
				   -0.002887635767   -0.002980434380   0.000000000000
				   -0.001195048932   -0.002471531536   0.000000000000
				   0.000029489192   -0.001968487569   0.000000000000
				   0.000834882011   -0.001500120954   0.000000000000
				   0.001301519688   -0.001074135473   0.000000000000
				   0.001495220127   -0.000700017087   0.000000000000
				   0.001480874286   -0.000386315022   0.000000000000
				   0.001318869434   -0.000143003136   0.000000000000
				   0.001063551165   0.000024434743   0.000000000000
				   0.000758833993   0.000115703567   0.000000000000
				   0.000449253762   0.000133966718   0.000000000000
				   0.000170100028   0.000091007465   0.000000000000
				   0.000000000000   0.000000000000   0.000000000000
				   0.000000000000   0.000000000000   0.000000000000
				   -0.000194008713   0.000259317256   0.000000000000
				   -0.000601645708   0.000610998921   0.000000000000
				   -0.001199890728   0.001010006253   0.000000000000
				   -0.001995804030   0.001403535564   0.000000000000
				   -0.002985341140   0.001755712525   0.000000000000
				   -0.004186952216   0.002046105266   0.000000000000
				   -0.005575712980   0.002261670906   0.000000000000
				   -0.007163278133   0.002405012347   0.000000000000
				   -0.008930770805   0.002484605908   0.000000000000
				   -0.010879567810   0.002511042055   0.000000000000
				   -0.012988916048   0.002494363631   0.000000000000
				   -0.015256941542   0.002440664320   0.000000000000
				   -0.017658057293   0.002346648569   0.000000000000
				   -0.020191070350   0.002201206097   0.000000000000
				   -0.022794712880   0.001976048200   0.000000000000
				   -0.025375166944   0.001631518590   0.000000000000
				   -0.027791912837   0.001103801359   0.000000000000
				   -0.029792479497   0.000323648103   0.000000000000
				   -0.031019993721   -0.000778533265   0.000000000000
				   -0.030978375748   -0.002211450626   0.000000000000
				   -0.029273371430   -0.003731156218   0.000000000000
				   -0.026159666523   -0.004993779259   0.000000000000
				   -0.022171935091   -0.005850195070   0.000000000000
				   -0.017833930188   -0.006239523678   0.000000000000
				   -0.013601706253   -0.006192722041   0.000000000000
				   -0.009767884612   -0.005806209988   0.000000000000
				   -0.006508523220   -0.005194244716   0.000000000000
				   -0.003884362490   -0.004463874510   0.000000000000
				   -0.001877328654   -0.003696240598   0.000000000000
				   -0.000411645984   -0.002934521061   0.000000000000
				   0.000569592485   -0.002221721031   0.000000000000
				   0.001159553845   -0.001571640442   0.000000000000
				   0.001434523063   -0.000998956015   0.000000000000
				   0.001467988788   -0.000517016380   0.000000000000
				   0.001328791674   -0.000140444692   0.000000000000
				   0.001079101753   0.000122018996   0.000000000000
				   0.000771018371   0.000266550761   0.000000000000
				   0.000455445188   0.000291104428   0.000000000000
				   0.000173096167   0.000200461862   0.000000000000
				   0.000000000000   0.000000000000   0.000000000000
				   0.000000000000   0.000000000000   0.000000000000
				   -0.000221928445   0.000545348415   0.000000000000
				   -0.000699743839   0.001144057049   0.000000000000
				   -0.001413841905   0.001752849725   0.000000000000
				   -0.002360997788   0.002326953622   0.000000000000
				   -0.003535352314   0.002826566816   0.000000000000
				   -0.004948798763   0.003238581485   0.000000000000
				   -0.006575458178   0.003544324251   0.000000000000
				   -0.008423048413   0.003753355999   0.000000000000
				   -0.010476710883   0.003872896721   0.000000000000
				   -0.012734378247   0.003918867803   0.000000000000
				   -0.015177358523   0.003903196117   0.000000000000
				   -0.017800517829   0.003831719389   0.000000000000
				   -0.020574554123   0.003702116237   0.000000000000
				   -0.023495292250   0.003491919526   0.000000000000
				   -0.026488478248   0.003166440627   0.000000000000
				   -0.029444426164   0.002662115426   0.000000000000
				   -0.032196718843   0.001894976533   0.000000000000
				   -0.034455527919   0.000761985664   0.000000000000
				   -0.035810679157   -0.000830319130   0.000000000000
				   -0.035700972091   -0.002893478038   0.000000000000
				   -0.033693487882   -0.005086058367   0.000000000000
				   -0.030099110448   -0.006915845533   0.000000000000
				   -0.025531413114   -0.008160677549   0.000000000000
				   -0.020581581039   -0.008736138931   0.000000000000
				   -0.015765545086   -0.008688509416   0.000000000000
				   -0.011412079155   -0.008154360918   0.000000000000
				   -0.007718149230   -0.007297407076   0.000000000000
				   -0.004748594391   -0.006269531315   0.000000000000
				   -0.002477989714   -0.005186882800   0.000000000000
				   -0.000815156753   -0.004111251350   0.000000000000
				   0.000306903150   -0.003103883107   0.000000000000
				   0.000995506256   -0.002184342236   0.000000000000
				   0.001336681018   -0.001373859411   0.000000000000
				   0.001412339761   -0.000690723399   0.000000000000
				   0.001297746516   -0.000155270850   0.000000000000
				   0.001061720786   0.000219461442   0.000000000000
				   0.000761540608   0.000425831666   0.000000000000
				   0.000451547024   0.000456421696   0.000000000000
				   0.000173592670   0.000313254456   0.000000000000
				   0.000000000000   0.000000000000   0.000000000000
				   0.000000000000   0.000000000000   0.000000000000
				   -0.000246806069   0.000917304101   0.000000000000
				   -0.000788734154   0.001830442879   0.000000000000
				   -0.001604922070   0.002707925632   0.000000000000
				   -0.002690990126   0.003501560169   0.000000000000
				   -0.004031552581   0.004180217944   0.000000000000
				   -0.005641350368   0.004731782983   0.000000000000
				   -0.007482621098   0.005143433528   0.000000000000
				   -0.009569475607   0.005425502023   0.000000000000
				   -0.011879568346   0.005592048719   0.000000000000
				   -0.014417045470   0.005660333270   0.000000000000
				   -0.017157503660   0.005645160589   0.000000000000
				   -0.020098523366   0.005554437696   0.000000000000
				   -0.023205254030   0.005379004333   0.000000000000
				   -0.026471481979   0.005093518744   0.000000000000
				   -0.029813498293   0.004642175456   0.000000000000
				   -0.033105010839   0.003947085158   0.000000000000
				   -0.036160301039   0.002887705893   0.000000000000
				   -0.038653118733   0.001331538718   0.000000000000
				   -0.040126660168   -0.000849702433   0.000000000000
				   -0.039956767123   -0.003667174418   0.000000000000
				   -0.037669379354   -0.006664329098   0.000000000000
				   -0.033621588670   -0.009172405772   0.000000000000
				   -0.028500030576   -0.010879857224   0.000000000000
				   -0.022962506396   -0.011676706822   0.000000000000
				   -0.017586045770   -0.011624870329   0.000000000000
				   -0.012740881607   -0.010910621104   0.000000000000
				   -0.008647087688   -0.009756720566   0.000000000000
				   -0.005374174991   -0.008371884455   0.000000000000
				   -0.002886071538   -0.006914819214   0.000000000000
				   -0.001072912025   -0.005470823170   0.000000000000
				   0.000147482399   -0.004121607147   0.000000000000
				   0.000898709327   -0.002892988939   0.000000000000
				   0.001278527916   -0.001811932275   0.000000000000
				   0.001377063324   -0.000901926916   0.000000000000
				   0.001275756552   -0.000189049974   0.000000000000
				   0.001047896314   0.000309610312   0.000000000000
				   0.000753972668   0.000582902446   0.000000000000
				   0.000448944021   0.000620445652   0.000000000000
				   0.000174757354   0.000424032545   0.000000000000
				   0.000000000000   0.000000000000   0.000000000000
				   0.000000000000   0.000000000000   0.000000000000
				   -0.000270832615   0.001378603682   0.000000000000
				   -0.000868561317   0.002685851454   0.000000000000
				   -0.001777122865   0.003891833986   0.000000000000
				   -0.002985548631   0.004955307103   0.000000000000
				   -0.004477959420   0.005844880186   0.000000000000
				   -0.006262874618   0.006562258968   0.000000000000
				   -0.008301586744   0.007093117130   0.000000000000
				   -0.010602647872   0.007459955120   0.000000000000
				   -0.013147173980   0.007678165437   0.000000000000
				   -0.015935167805   0.007771684545   0.000000000000
				   -0.018944725261   0.007757870700   0.000000000000
				   -0.022171681917   0.007642115865   0.000000000000
				   -0.025579054636   0.007415886635   0.000000000000
				   -0.029160702657   0.007036890205   0.000000000000
				   -0.032823299595   0.006440030478   0.000000000000
				   -0.036431315901   0.005514102046   0.000000000000
				   -0.039779432218   0.004110470067   0.000000000000
				   -0.042512771277   0.002049755666   0.000000000000
				   -0.044127438002   -0.000829722089   0.000000000000
				   -0.043936341935   -0.004542659603   0.000000000000
				   -0.041412792481   -0.008498737873   0.000000000000
				   -0.036942955779   -0.011818809660   0.000000000000
				   -0.031279877796   -0.014083150385   0.000000000000
				   -0.025146377945   -0.015147088155   0.000000000000
				   -0.019187608134   -0.015089101100   0.000000000000
				   -0.013826657832   -0.014151981744   0.000000000000
				   -0.009318588536   -0.012632079234   0.000000000000
				   -0.005743841576   -0.010809597964   0.000000000000
				   -0.003056331708   -0.008899457649   0.000000000000
				   -0.001123137380   -0.007016444171   0.000000000000
				   0.000159140727   -0.005267768904   0.000000000000
				   0.000936035990   -0.003684186722   0.000000000000
				   0.001320587267   -0.002297712812   0.000000000000
				   0.001413527565   -0.001135400574   0.000000000000
				   0.001302953840   -0.000228290360   0.000000000000
				   0.001066135599   0.000403397393   0.000000000000
				   0.000765428960   0.000746897823   0.000000000000
				   0.000455739248   0.000790121201   0.000000000000
				   0.000178626367   0.000537761637   0.000000000000
				   0.000000000000   0.000000000000   0.000000000000
				   0.000000000000   0.000000000000   0.000000000000
				   -0.000292266276   0.001931857772   0.000000000000
				   -0.000939362205   0.003708322471   0.000000000000
				   -0.001926753553   0.005309230555   0.000000000000
				   -0.003243225583   0.006689774392   0.000000000000
				   -0.004866528239   0.007828921084   0.000000000000
				   -0.006807873452   0.008735051467   0.000000000000
				   -0.009018580552   0.009403552756   0.000000000000
				   -0.011512094904   0.009863589899   0.000000000000
				   -0.014262646075   0.010140173959   0.000000000000
				   -0.017275160761   0.010262086382   0.000000000000
				   -0.020524089663   0.010248507131   0.000000000000
				   -0.024008314113   0.010108187006   0.000000000000
				   -0.027689861466   0.009821386016   0.000000000000
				   -0.031563069284   0.009342077858   0.000000000000
				   -0.035532980806   0.008576020073   0.000000000000
				   -0.039454687057   0.007391951948   0.000000000000
				   -0.043113990363   0.005591668917   0.000000000000
				   -0.046127979416   0.002952404718   0.000000000000
				   -0.047950521025   -0.000737173480   0.000000000000
				   -0.047828862236   -0.005494528698   0.000000000000
				   -0.045169486576   -0.010578450439   0.000000000000
				   -0.040360020432   -0.014866086033   0.000000000000
				   -0.034199593901   -0.017804697603   0.000000000000
				   -0.027464320619   -0.019205210835   0.000000000000
				   -0.020869039318   -0.019153410399   0.000000000000
				   -0.014910023139   -0.017952146172   0.000000000000
				   -0.009902763309   -0.015983848792   0.000000000000
				   -0.005960120057   -0.013621197868   0.000000000000
				   -0.003035675947   -0.011154667015   0.000000000000
				   -0.000972687145   -0.008740941257   0.000000000000
				   0.000359940469   -0.006519955322   0.000000000000
				   0.001138124728   -0.004527306894   0.000000000000
				   0.001497372807   -0.002797415664   0.000000000000
				   0.001553974727   -0.001358181291   0.000000000000
				   0.001405757944   -0.000243044661   0.000000000000
				   0.001135323987   0.000527069182   0.000000000000
				   0.000807154644   0.000939153463   0.000000000000
				   0.000476933081   0.000981709863   0.000000000000
				   0.000186502247   0.000663245264   0.000000000000
				   0.000000000000   0.000000000000   0.000000000000
				   0.000000000000   0.000000000000   0.000000000000
				   -0.000312066342   0.002578865270   0.000000000000
				   -0.001000732661   0.004907791992   0.000000000000
				   -0.002055924931   0.006969121923   0.000000000000
				   -0.003463203122   0.008722353849   0.000000000000
				   -0.005200023166   0.010148856413   0.000000000000
				   -0.007274275433   0.011274394263   0.000000000000
				   -0.009636324640   0.012097805690   0.000000000000
				   -0.012296073021   0.012664555330   0.000000000000
				   -0.015229711988   0.013006795744   0.000000000000
				   -0.018440554551   0.013160911709   0.000000000000
				   -0.021905077454   0.013152237449   0.000000000000
				   -0.025624898355   0.012984479429   0.000000000000
				   -0.029562453988   0.012639546388   0.000000000000
				   -0.033719931029   0.012049094183   0.000000000000
				   -0.038000703226   0.011106182669   0.000000000000
				   -0.042263405627   0.009636012117   0.000000000000
				   -0.046286994615   0.007399603291   0.000000000000
				   -0.049671780024   0.004106903145   0.000000000000
				   -0.051831713632   -0.000506433178   0.000000000000
				   -0.051959064076   -0.006466235895   0.000000000000
				   -0.049385877750   -0.012864884172   0.000000000000
				   -0.044453200233   -0.018307408429   0.000000000000
				   -0.037950980129   -0.022087437553   0.000000000000
				   -0.030660025003   -0.023953068117   0.000000000000
				   -0.023351208472   -0.023972676488   0.000000000000
				   -0.016623696406   -0.022493503413   0.000000000000
				   -0.010906363161   -0.019990606160   0.000000000000
				   -0.006395552650   -0.016954606157   0.000000000000
				   -0.003076684787   -0.013784591369   0.000000000000
				   -0.000778273323   -0.010702683795   0.000000000000
				   0.000661430571   -0.007898486552   0.000000000000
				   0.001461422845   -0.005414445748   0.000000000000
				   0.001792131328   -0.003285254529   0.000000000000
				   0.001795707229   -0.001534665107   0.000000000000
				   0.001587391046   -0.000193867297   0.000000000000
				   0.001259698348   0.000719260821   0.000000000000
				   0.000882464467   0.001194618137   0.000000000000
				   0.000513989573   0.001222201026   0.000000000000
				   0.000198678013   0.000816553090   0.000000000000
				   0.000000000000   0.000000000000   0.000000000000
				   0.000000000000   0.000000000000   0.000000000000
				   -0.000329625542   0.003319034701   0.000000000000
				   -0.001052723414   0.006278134172   0.000000000000
				   -0.002162900815   0.008868163713   0.000000000000
				   -0.003645144781   0.011045628936   0.000000000000
				   -0.005474606309   0.012801931520   0.000000000000
				   -0.007660641442   0.014175369361   0.000000000000
				   -0.010148756598   0.015175854003   0.000000000000
				   -0.012951481262   0.015863219306   0.000000000000
				   -0.016042684889   0.016280952341   0.000000000000
				   -0.019428764063   0.016476681515   0.000000000000
				   -0.023088076118   0.016476864241   0.000000000000
				   -0.027026093873   0.016292362640   0.000000000000
				   -0.031212687196   0.015890635048   0.000000000000
				   -0.035657138503   0.015199992995   0.000000000000
				   -0.040275368741   0.014077600633   0.000000000000
				   -0.044931721184   0.012320191117   0.000000000000
				   -0.049415756907   0.009622174628   0.000000000000
				   -0.053318352397   0.005624716170   0.000000000000
				   -0.056036972169   -0.000006740111   0.000000000000
				   -0.056753085474   -0.007298491825   0.000000000000
				   -0.054742683312   -0.015173757290   0.000000000000
				   -0.050205402866   -0.021974872181   0.000000000000
				   -0.043781966866   -0.026838678876   0.000000000000
				   -0.036138496996   -0.029424479756   0.000000000000
				   -0.028053913794   -0.029717338486   0.000000000000
				   -0.020272876257   -0.028050406874   0.000000000000
				   -0.013432849842   -0.024971225624   0.000000000000
				   -0.007917072224   -0.021113781638   0.000000000000
				   -0.003819034123   -0.017037607080   0.000000000000
				   -0.000985072036   -0.013077932212   0.000000000000
				   0.000767774975   -0.009510362077   0.000000000000
				   0.001717809401   -0.006396284456   0.000000000000
				   0.002089891369   -0.003771078932   0.000000000000
				   0.002071402081   -0.001648457393   0.000000000000
				   0.001809960618   -0.000049993272   0.000000000000
				   0.001419525769   0.001016722203   0.000000000000
				   0.000982039823   0.001548818277   0.000000000000
				   0.000563975461   0.001541151297   0.000000000000
				   0.000214854628   0.001014992736   0.000000000000
				   0.000000000000   0.000000000000   0.000000000000
				   0.000000000000   0.000000000000   0.000000000000
				   -0.000345184147   0.004152792601   0.000000000000
				   -0.001095565384   0.007824385189   0.000000000000
				   -0.002248381578   0.011010580708   0.000000000000
				   -0.003789070403   0.013669663858   0.000000000000
				   -0.005691812273   0.015798508586   0.000000000000
				   -0.007966989827   0.017454666097   0.000000000000
				   -0.010558428756   0.018656597889   0.000000000000
				   -0.013480118174   0.019483259186   0.000000000000
				   -0.016706263068   0.019992491905   0.000000000000
				   -0.020247540750   0.020241052599   0.000000000000
				   -0.024084358334   0.020267509926   0.000000000000
				   -0.028232915894   0.020077650772   0.000000000000
				   -0.032668693676   0.019643397380   0.000000000000
				   -0.037422262827   0.018869612429   0.000000000000
				   -0.042423431673   0.017597221219   0.000000000000
				   -0.047562589689   0.015569856453   0.000000000000
				   -0.052650599463   0.012421566562   0.000000000000
				   -0.057300066937   0.007700971818   0.000000000000
				   -0.060948953353   0.001014423817   0.000000000000
				   -0.062892175166   -0.007643907804   0.000000000000
				   -0.062395152340   -0.017067519378   0.000000000000
				   -0.059303432191   -0.025440187249   0.000000000000
				   -0.053825845142   -0.031780802853   0.000000000000
				   -0.046305494093   -0.035601942268   0.000000000000
				   -0.037447162319   -0.036664831302   0.000000000000
				   -0.028191976669   -0.035149099122   0.000000000000
				   -0.019525909095   -0.031598454443   0.000000000000