<VTKFile type="UnstructuredGrid" version="0.1" byte_order="BigEndian">
	<UnstructuredGrid>
		<Piece NumberOfPoints="1681" NumberOfCells="3200">
			<PointData Scalars="scalars" Vectors = "Velocity">
				<DataArray type="Float32" Name="Velocity" NumberOfComponents="3" Format="ascii">
				   0.000000000000   0.000000000000   0.000000000000
				   0.000000000000   0.000000000000   0.000000000000
				   0.000000000000   0.000000000000   0.000000000000
				   0.000000000000   0.000000000000   0.000000000000
				   0.000000000000   0.000000000000   0.000000000000
				   0.000000000000   0.000000000000   0.000000000000
				   0.000000000000   0.000000000000   0.000000000000
				   0.000000000000   0.000000000000   0.000000000000
				   0.000000000000   0.000000000000   0.000000000000
				   0.000000000000   0.000000000000   0.000000000000
				   0.000000000000   0.000000000000   0.000000000000
				   0.000000000000   0.000000000000   0.000000000000
				   0.000000000000   0.000000000000   0.000000000000
				   0.000000000000   0.000000000000   0.000000000000
				   0.000000000000   0.000000000000   0.000000000000
				   0.000000000000   0.000000000000   0.000000000000
				   0.000000000000   0.000000000000   0.000000000000
				   0.000000000000   0.000000000000   0.000000000000
				   0.000000000000   0.000000000000   0.000000000000
				   0.000000000000   0.000000000000   0.000000000000
				   0.000000000000   0.000000000000   0.000000000000
				   0.000000000000   0.000000000000   0.000000000000
				   0.000000000000   0.000000000000   0.000000000000
				   0.000000000000   0.000000000000   0.000000000000
				   0.000000000000   0.000000000000   0.000000000000
				   0.000000000000   0.000000000000   0.000000000000
				   0.000000000000   0.000000000000   0.000000000000
				   0.000000000000   0.000000000000   0.000000000000
				   0.000000000000   0.000000000000   0.000000000000
				   0.000000000000   0.000000000000   0.000000000000
				   0.000000000000   0.000000000000   0.000000000000
				   0.000000000000   0.000000000000   0.000000000000
				   0.000000000000   0.000000000000   0.000000000000
				   0.000000000000   0.000000000000   0.000000000000
				   0.000000000000   0.000000000000   0.000000000000
				   0.000000000000   0.000000000000   0.000000000000
				   0.000000000000   0.000000000000   0.000000000000
				   0.000000000000   0.000000000000   0.000000000000
				   0.000000000000   0.000000000000   0.000000000000
				   0.000000000000   0.000000000000   0.000000000000
				   0.000000000000   0.000000000000   0.000000000000
				   0.000000000000   0.000000000000   0.000000000000
				   0.000030498876   0.000031839768   0.000000000000
				   -0.000031776358   0.000048374480   0.000000000000
				   -0.000098715436   0.000067253178   0.000000000000
				   -0.000206046481   0.000083592955   0.000000000000
				   -0.000354916676   0.000099703917   0.000000000000
				   -0.000545640167   0.000113780236   0.000000000000
				   -0.000770143956   0.000124274617   0.000000000000
				   -0.001025022018   0.000130933479   0.000000000000
				   -0.001303563047   0.000134367917   0.000000000000
				   -0.001604457415   0.000135612781   0.000000000000
				   -0.001925386153   0.000136098303   0.000000000000
				   -0.002265774962   0.000136155092   0.000000000000
				   -0.002623259243   0.000136198667   0.000000000000
				   -0.003000230579   0.000135861942   0.000000000000
				   -0.003392009418   0.000135163588   0.000000000000
				   -0.003790106947   0.000133399421   0.000000000000
				   -0.004183608355   0.000128912766   0.000000000000
				   -0.004553028021   0.000120782216   0.000000000000
				   -0.004871490030   0.000108045857   0.000000000000
				   -0.005099037452   0.000087627918   0.000000000000
				   -0.005177752530   0.000064444794   0.000000000000
				   -0.005085094985   0.000044262007   0.000000000000
				   -0.004843067616   0.000024348003   0.000000000000
				   -0.004484516376   0.000005881745   0.000000000000
				   -0.004042957164   -0.000009125430   0.000000000000
				   -0.003549044491   -0.000019742606   0.000000000000
				   -0.003031579126   -0.000025537293   0.000000000000
				   -0.002515967148   -0.000027119685   0.000000000000
				   -0.002023120125   -0.000024711066   0.000000000000
				   -0.001563939984   -0.000018731513   0.000000000000
				   -0.001154681445   -0.000009255171   0.000000000000
				   -0.000802358319   0.000000976781   0.000000000000
				   -0.000516821469   0.000009438435   0.000000000000
				   -0.000300452228   0.000015525739   0.000000000000
				   -0.000150318767   0.000021687672   0.000000000000
				   -0.000058652324   0.000031869725   0.000000000000
				   -0.000020197541   0.000049197274   0.000000000000
				   -0.000030214004   0.000074355124   0.000000000000
				   -0.000079808874   0.000097352592   0.000000000000
				   0.000000000000   0.000000000000   0.000000000000
				   0.000000000000   0.000000000000   0.000000000000
				   0.000021055628   0.000013682179   0.000000000000
				   -0.000100552042   0.000046048660   0.000000000000
				   -0.000250271468   0.000100848948   0.000000000000
				   -0.000463031554   0.000153764866   0.000000000000
				   -0.000743764189   0.000201632713   0.000000000000
				   -0.001096278094   0.000241334802   0.000000000000
				   -0.001509249539   0.000270199429   0.000000000000
				   -0.001980238538   0.000289010044   0.000000000000
				   -0.002500566052   0.000298475728   0.000000000000
				   -0.003068207028   0.000300558770   0.000000000000
				   -0.003677252545   0.000297619027   0.000000000000
				   -0.004325699536   0.000291028804   0.000000000000
				   -0.005007380138   0.000281557842   0.000000000000
				   -0.005725454870   0.000268834256   0.000000000000
				   -0.006469509222   0.000252187598   0.000000000000
				   -0.007223208567   0.000229268417   0.000000000000
				   -0.007965910107   0.000195936202   0.000000000000
				   -0.008661053066   0.000148240941   0.000000000000
				   -0.009259070602   0.000081526987   0.000000000000
				   -0.009685127989   -0.000008085049   0.000000000000
				   -0.009830372415   -0.000106098341   0.000000000000
				   -0.009656412301   -0.000198434017   0.000000000000
				   -0.009205866673   -0.000287382614   0.000000000000
				   -0.008539399106   -0.000366793028   0.000000000000
				   -0.007719912156   -0.000431057233   0.000000000000
				   -0.006803568119   -0.000478639826   0.000000000000
				   -0.005842764978   -0.000508829911   0.000000000000
				   -0.004883123161   -0.000522775527   0.000000000000
				   -0.003962051579   -0.000521941552   0.000000000000
				   -0.003098742769   -0.000507597236   0.000000000000
				   -0.002324003092   -0.000481201528   0.000000000000
				   -0.001648980514   -0.000445433899   0.000000000000
				   -0.001089970079   -0.000401821271   0.000000000000
				   -0.000653685973   -0.000349420121   0.000000000000
				   -0.000339565706   -0.000286658768   0.000000000000
				   -0.000136691137   -0.000212025858   0.000000000000
				   -0.000031985977   -0.000125429654   0.000000000000
				   -0.000010244450   -0.000035892498   0.000000000000
				   -0.000074581004   0.000056255884   0.000000000000
				   0.000000000000   0.000000000000   0.000000000000
				   0.000000000000   0.000000000000   0.000000000000
				   0.000007453030   0.000058755083   0.000000000000
				   -0.000164637721   0.000135383534   0.000000000000
				   -0.000393766774   0.000243970690   0.000000000000
				   -0.000708224839   0.000349558673   0.000000000000
				   -0.001113090962   0.000443613214   0.000000000000
				   -0.001614996426   0.000520647223   0.000000000000
				   -0.002199875383   0.000576439992   0.000000000000
				   -0.002866109603   0.000612341020   0.000000000000
				   -0.003603090943   0.000629709948   0.000000000000
				   -0.004408393806   0.000631886386   0.000000000000
				   -0.005273549016   0.000622520938   0.000000000000
				   -0.006195682400   0.000604209131   0.000000000000
				   -0.007165072715   0.000578224362   0.000000000000
				   -0.008185003861   0.000543683985   0.000000000000
				   -0.009239349904   0.000498453148   0.000000000000
				   -0.010304801794   0.000437914482   0.000000000000
				   -0.011352007925   0.000354369184   0.000000000000
				   -0.012328745160   0.000240136534   0.000000000000
				   -0.013165337290   0.000087485705   0.000000000000
				   -0.013756912553   -0.000109734997   0.000000000000
				   -0.013951657802   -0.000328917499   0.000000000000
				   -0.013701096796   -0.000541254050   0.000000000000
				   -0.013066817570   -0.000741701713   0.000000000000
				   -0.012132821706   -0.000918635312   0.000000000000
				   -0.010987144383   -0.001062511233   0.000000000000
				   -0.009707026965   -0.001169605488   0.000000000000
				   -0.008365113349   -0.001238692600   0.000000000000
				   -0.007024488616   -0.001272222825   0.000000000000
				   -0.005736539503   -0.001273016397   0.000000000000
				   -0.004527472849   -0.001243163340   0.000000000000
				   -0.003441770659   -0.001184720900   0.000000000000
				   -0.002494533293   -0.001100182377   0.000000000000
				   -0.001705464369   -0.000991059274   0.000000000000
				   -0.001081405361   -0.000857437582   0.000000000000
				   -0.000620441659   -0.000701436003   0.000000000000
				   -0.000307080530   -0.000527088284   0.000000000000
				   -0.000121709187   -0.000340978533   0.000000000000
				   -0.000043342402   -0.000166353476   0.000000000000
				   -0.000082210963   -0.000001978354   0.000000000000
				   0.000000000000   0.000000000000   0.000000000000
				   0.000000000000   0.000000000000   0.000000000000
				   -0.000006900550   0.000145503482   0.000000000000
				   -0.000225516769   0.000301838240   0.000000000000
				   -0.000529586425   0.000487426811   0.000000000000
				   -0.000939353258   0.000664364326   0.000000000000
				   -0.001458091814   0.000820097208   0.000000000000
				   -0.002093940740   0.000947447797   0.000000000000
				   -0.002830767165   0.001040247790   0.000000000000
				   -0.003668568945   0.001100306061   0.000000000000
				   -0.004595366004   0.001129891875   0.000000000000
				   -0.005608484835   0.001133955493   0.000000000000
				   -0.006697226280   0.001117722534   0.000000000000
				   -0.007858005933   0.001085120976   0.000000000000
				   -0.009077862806   0.001037839518   0.000000000000
				   -0.010359643246   0.000974340890   0.000000000000
				   -0.011681626442   0.000890964687   0.000000000000
				   -0.013014299725   0.000780047458   0.000000000000
				   -0.014320518553   0.000629690174   0.000000000000
				   -0.015534380864   0.000427292515   0.000000000000
				   -0.016569227677   0.000158074323   0.000000000000
				   -0.017293879556   -0.000187963559   0.000000000000
				   -0.017520087971   -0.000574243199   0.000000000000
				   -0.017194749918   -0.000951822295   0.000000000000
				   -0.016397768399   -0.001307792125   0.000000000000
				   -0.015232187820   -0.001622400188   0.000000000000
				   -0.013807020893   -0.001878906894   0.000000000000
				   -0.012217488023   -0.002071593576   0.000000000000
				   -0.010553398121   -0.002199055581   0.000000000000
				   -0.008892195466   -0.002264361569   0.000000000000
				   -0.007296614624   -0.002271605057   0.000000000000
				   -0.005798090829   -0.002224150913   0.000000000000
				   -0.004451768005   -0.002124838560   0.000000000000
				   -0.003275061464   -0.001976437202   0.000000000000
				   -0.002289666295   -0.001781386744   0.000000000000
				   -0.001502412452   -0.001542414099   0.000000000000
				   -0.000910060679   -0.001267053622   0.000000000000
				   -0.000493101174   -0.000966546469   0.000000000000
				   -0.000227999878   -0.000654138570   0.000000000000
				   -0.000093393669   -0.000364131190   0.000000000000
				   -0.000100723199   -0.000097471941   0.000000000000
				   0.000000000000   0.000000000000   0.000000000000
				   0.000000000000   0.000000000000   0.000000000000
				   -0.000017102154   0.000274826281   0.000000000000
				   -0.000276016245   0.000547155123   0.000000000000
				   -0.000647104822   0.000834399992   0.000000000000
				   -0.001143154119   0.001101181505   0.000000000000
				   -0.001764733850   0.001332589563   0.000000000000
				   -0.002520155920   0.001521393507   0.000000000000
				   -0.003390834674   0.001659661207   0.000000000000
				   -0.004377931856   0.001750054790   0.000000000000
				   -0.005468328408   0.001795899556   0.000000000000
				   -0.006659482409   0.001803840504   0.000000000000
				   -0.007939044530   0.001780696130   0.000000000000
				   -0.009302999191   0.001731729002   0.000000000000
				   -0.010735452428   0.001659333310   0.000000000000
				   -0.012238593662   0.001561169118   0.000000000000
				   -0.013785860663   0.001431163036   0.000000000000
				   -0.015342298206   0.001258020223   0.000000000000
				   -0.016864022843   0.001024535345   0.000000000000
				   -0.018273685571   0.000711028400   0.000000000000
				   -0.019469575604   0.000296035060   0.000000000000
				   -0.020297525784   -0.000233616959   0.000000000000
				   -0.020540266550   -0.000829407596   0.000000000000
				   -0.020143683588   -0.001419540155   0.000000000000
				   -0.019202962662   -0.001975943972   0.000000000000
				   -0.017836625483   -0.002467252935   0.000000000000
				   -0.016172360742   -0.002869859381   0.000000000000
				   -0.014320863517   -0.003175261960   0.000000000000
				   -0.012386354991   -0.003380460763   0.000000000000
				   -0.010458492789   -0.003489430654   0.000000000000
				   -0.008609364715   -0.003508230610   0.000000000000
				   -0.006874059217   -0.003441644665   0.000000000000
				   -0.005315698788   -0.003293750234   0.000000000000
				   -0.003952463552   -0.003068304557   0.000000000000
				   -0.002806297562   -0.002769741348   0.000000000000
				   -0.001883158601   -0.002404607580   0.000000000000
				   -0.001178672042   -0.001987081535   0.000000000000
				   -0.000670572290   -0.001536317541   0.000000000000
				   -0.000333428665   -0.001072019210   0.000000000000
				   -0.000148095090   -0.000636693074   0.000000000000
				   -0.000123830250   -0.000237063815   0.000000000000
				   0.000000000000   0.000000000000   0.000000000000
				   0.000000000000   0.000000000000   0.000000000000
				   -0.000025268194   0.000448667406   0.000000000000
				   -0.000317758406   0.000876610670   0.000000000000
				   -0.000747044437   0.001294042112   0.000000000000
				   -0.001319353558   0.001671993399   0.000000000000
				   -0.002032330654   0.001994604865   0.000000000000
				   -0.002893674135   0.002256450573   0.000000000000
				   -0.003881947236   0.002448620722   0.000000000000
				   -0.004998809203   0.002575443508   0.000000000000
				   -0.006230043912   0.002641470899   0.000000000000
				   -0.007573416560   0.002655090321   0.000000000000
				   -0.009015317809   0.002624804726   0.000000000000
				   -0.010551455147   0.002557396784   0.000000000000
				   -0.012163555251   0.002455782733   0.000000000000
				   -0.013853357152   0.002316160300   0.000000000000
				   -0.015590072351   0.002129931982   0.000000000000
				   -0.017334159613   0.001881655497   0.000000000000
				   -0.019036182743   0.001547638109   0.000000000000
				   -0.020608773612   0.001101365271   0.000000000000
				   -0.021937348330   0.000512957831   0.000000000000
				   -0.022848692152   -0.000239840215   0.000000000000
				   -0.023100550378   -0.001094720481   0.000000000000
				   -0.022637576481   -0.001947151043   0.000000000000
				   -0.021568461308   -0.002750802901   0.000000000000
				   -0.020025215835   -0.003462195636   0.000000000000
				   -0.018151585134   -0.004047198372   0.000000000000
				   -0.016072255174   -0.004492730975   0.000000000000
				   -0.013905114669   -0.004794975072   0.000000000000
				   -0.011750840837   -0.004959337186   0.000000000000
				   -0.009689279433   -0.004993952277   0.000000000000
				   -0.007757930535   -0.004905592187   0.000000000000
				   -0.006025625083   -0.004700568075   0.000000000000
				   -0.004510117581   -0.004384553362   0.000000000000
				   -0.003232666401   -0.003964988711   0.000000000000
				   -0.002198163885   -0.003453198247   0.000000000000
				   -0.001401425181   -0.002870627316   0.000000000000
				   -0.000818576557   -0.002244288537   0.000000000000
				   -0.000423077096   -0.001600016344   0.000000000000
				   -0.000197770681   -0.000986672525   0.000000000000
				   -0.000147328130   -0.000421186499   0.000000000000
				   0.000000000000   0.000000000000   0.000000000000
				   0.000000000000   0.000000000000   0.000000000000
				   -0.000032091213   0.000665266588   0.000000000000
				   -0.000350987563   0.001286587025   0.000000000000
				   -0.000827952511   0.001862843082   0.000000000000
				   -0.001464128979   0.002373018189   0.000000000000
				   -0.002254571132   0.002801725701   0.000000000000
				   -0.003205887788   0.003147064601   0.000000000000
				   -0.004293573474   0.003400337883   0.000000000000
				   -0.005519269159   0.003568475589   0.000000000000
				   -0.006867750089   0.003657560869   0.000000000000
				   -0.008337046015   0.003677972838   0.000000000000
				   -0.009912551207   0.003640047893   0.000000000000
				   -0.011589995739   0.003551927699   0.000000000000
				   -0.013349413415   0.003416939781   0.000000000000
				   -0.015192214862   0.003229986862   0.000000000000
				   -0.017084421084   0.002979499883   0.000000000000
				   -0.018983203861   0.002645013425   0.000000000000
				   -0.020834758514   0.002196068248   0.000000000000
				   -0.022543923582   0.001597336808   0.000000000000
				   -0.023985822290   0.000807227759   0.000000000000
				   -0.024970430083   -0.000205651683   0.000000000000
				   -0.025232532582   -0.001362513438   0.000000000000
				   -0.024714570412   -0.002523644346   0.000000000000
				   -0.023535522340   -0.003620857864   0.000000000000
				   -0.021837386597   -0.004592836344   0.000000000000
				   -0.019778730705   -0.005392768279   0.000000000000
				   -0.017498578778   -0.006003457920   0.000000000000
				   -0.015128151722   -0.006419516348   0.000000000000
				   -0.012778641023   -0.006647696445   0.000000000000
				   -0.010537121907   -0.006699450110   0.000000000000
				   -0.008442842436   -0.006584705300   0.000000000000
				   -0.006568555535   -0.006313170254   0.000000000000
				   -0.004930648829   -0.005893465954   0.000000000000
				   -0.003549117202   -0.005336985483   0.000000000000
				   -0.002427654245   -0.004660379934   0.000000000000
				   -0.001560386287   -0.003892584998   0.000000000000
				   -0.000922338427   -0.003067988985   0.000000000000
				   -0.000485810491   -0.002218271691   0.000000000000
				   -0.000234176243   -0.001397122507   0.000000000000
				   -0.000164507005   -0.000637235847   0.000000000000
				   0.000000000000   0.000000000000   0.000000000000
				   0.000000000000   0.000000000000   0.000000000000
				   -0.000039330311   0.000927420137   0.000000000000
				   -0.000378299555   0.001781172253   0.000000000000
				   -0.000893434733   0.002548309114   0.000000000000
				   -0.001581949829   0.003214772306   0.000000000000
				   -0.002436667885   0.003767132285   0.000000000000
				   -0.003463011245   0.004208414508   0.000000000000
				   -0.004633607797   0.004531122652   0.000000000000
				   -0.005949887421   0.004745803681   0.000000000000
				   -0.007395662557   0.004860673444   0.000000000000
				   -0.008969103270   0.004888596920   0.000000000000
				   -0.010654869518   0.004841954422   0.000000000000
				   -0.012448915898   0.004730447362   0.000000000000
				   -0.014330124473   0.004557982293   0.000000000000
				   -0.016300217316   0.004317597100   0.000000000000
				   -0.018323333013   0.003994073564   0.000000000000
				   -0.020354473860   0.003561683685   0.000000000000
				   -0.022337102503   0.002981711591   0.000000000000
				   -0.024170290196   0.002208349837   0.000000000000
				   -0.025720336009   0.001188004763   0.000000000000
				   -0.026782637593   -0.000123265854   0.000000000000
				   -0.027069135758   -0.001632292260   0.000000000000
				   -0.026514294709   -0.003156468269   0.000000000000
				   -0.025242429409   -0.004598626796   0.000000000000
				   -0.023404120154   -0.005877612653   0.000000000000
				   -0.021172842117   -0.006931398791   0.000000000000
				   -0.018702805847   -0.007735429944   0.000000000000
				   -0.016140236040   -0.008282001412   0.000000000000
				   -0.013608492372   -0.008580784835   0.000000000000
				   -0.011202396872   -0.008648180062   0.000000000000
				   -0.008962888795   -0.008498748665   0.000000000000
				   -0.006965766789   -0.008147350741   0.000000000000
				   -0.005225388776   -0.007606824133   0.000000000000
				   -0.003760009896   -0.006893380869   0.000000000000
				   -0.002571760326   -0.006029412506   0.000000000000
				   -0.001653633403   -0.005051657517   0.000000000000
				   -0.000979128555   -0.004001784561   0.000000000000
				   -0.000518692882   -0.002917763637   0.000000000000
				   -0.000254331726   -0.001858259513   0.000000000000
				   -0.000173754661   -0.000874833948   0.000000000000
				   0.000000000000   0.000000000000   0.000000000000
				   0.000000000000   0.000000000000   0.000000000000
				   -0.000046694668   0.001234499199   0.000000000000
				   -0.000400846139   0.002356693382   0.000000000000
				   -0.000945762159   0.003346118344   0.000000000000
				   -0.001675716205   0.004193351931   0.000000000000
				   -0.002581836976   0.004887756530   0.000000000000
				   -0.003668658398   0.005438136616   0.000000000000
				   -0.004906512992   0.005838856113   0.000000000000
				   -0.006296620144   0.006105157512   0.000000000000
				   -0.007821935733   0.006248193222   0.000000000000
				   -0.009480712116   0.006284017631   0.000000000000
				   -0.011257079962   0.006227567078   0.000000000000
				   -0.013147451965   0.006090333213   0.000000000000
				   -0.015130419188   0.005876541185   0.000000000000
				   -0.017208782096   0.005577163834   0.000000000000
				   -0.019345944577   0.005173233924   0.000000000000
				   -0.021496319876   0.004632755777   0.000000000000
				   -0.023602442409   0.003907749815   0.000000000000
				   -0.025559514162   0.002941086507   0.000000000000
				   -0.027227424017   0.001663403360   0.000000000000
				   -0.028388479003   0.000013726533   0.000000000000
				   -0.028727165228   -0.001898386199   0.000000000000
				   -0.028161210465   -0.003841512317   0.000000000000
				   -0.026815831131   -0.005686753987   0.000000000000
				   -0.024847645957   -0.007327217611   0.000000000000
				   -0.022444909645   -0.008678471624   0.000000000000
				   -0.019780482730   -0.009706184093   0.000000000000
				   -0.017019794593   -0.010400226012   0.000000000000
				   -0.014301579223   -0.010774148577   0.000000000000
				   -0.011730351262   -0.010851599106   0.000000000000
				   -0.009349584029   -0.010654320835   0.000000000000
				   -0.007237853416   -0.010204706264   0.000000000000
				   -0.005406734248   -0.009521293383   0.000000000000
				   -0.003872067135   -0.008626212699   0.000000000000
				   -0.002633629465   -0.007548198214   0.000000000000
				   -0.001682271342   -0.006332459394   0.000000000000
				   -0.000988914062   -0.005028461748   0.000000000000
				   -0.000520939115   -0.003681301290   0.000000000000
				   -0.000257090088   -0.002356435697   0.000000000000
				   -0.000174996218   -0.001124346470   0.000000000000
				   0.000000000000   0.000000000000   0.000000000000
				   0.000000000000   0.000000000000   0.000000000000
				   -0.000054117985   0.001585935233   0.000000000000
				   -0.000419983814   0.003012386439   0.000000000000
				   -0.000988071197   0.004256336767   0.000000000000
				   -0.001750481302   0.005310554909   0.000000000000
				   -0.002697153191   0.006167262166   0.000000000000
				   -0.003832179295   0.006841594095   0.000000000000
				   -0.005124252509   0.007330209214   0.000000000000
				   -0.006574571597   0.007654118572   0.000000000000
				   -0.008165441933   0.007828323866   0.000000000000
				   -0.009895282009   0.007872953917   0.000000000000
				   -0.011748010298   0.007806067544   0.000000000000
				   -0.013720935870   0.007641229856   0.000000000000
				   -0.015793105328   0.007383194052   0.000000000000
				   -0.017969209892   0.007020854995   0.000000000000
				   -0.020213489249   0.006530770494   0.000000000000
				   -0.022481446515   0.005874063993   0.000000000000
				   -0.024716698434   0.004992506667   0.000000000000
				   -0.026813266883   0.003814671162   0.000000000000
				   -0.028626410408   0.002252376201   0.000000000000
				   -0.029925122593   0.000224478015   0.000000000000
				   -0.030359768350   -0.002146962386   0.000000000000
				   -0.029819398228   -0.004578616737   0.000000000000
				   -0.028421856723   -0.006900854845   0.000000000000
				   -0.026326209915   -0.008971702754   0.000000000000
				   -0.023737682216   -0.010677354699   0.000000000000
				   -0.020853519551   -0.011968723200   0.000000000000
				   -0.017865165939   -0.012830657557   0.000000000000
				   -0.014933243732   -0.013282433967   0.000000000000
				   -0.012176148238   -0.013358984723   0.000000000000
				   -0.009641445157   -0.013092959332   0.000000000000
				   -0.007410690087   -0.012517914337   0.000000000000
				   -0.005491511851   -0.011660360758   0.000000000000
				   -0.003896042724   -0.010550012496   0.000000000000
				   -0.002620168870   -0.009223058394   0.000000000000
				   -0.001650898686   -0.007734421262   0.000000000000
				   -0.000954936936   -0.006142594735   0.000000000000
				   -0.000495004005   -0.004500880905   0.000000000000
				   -0.000244674181   -0.002884564013   0.000000000000
				   -0.000171294001   -0.001381687934   0.000000000000
				   0.000000000000   0.000000000000   0.000000000000
				   0.000000000000   0.000000000000   0.000000000000
				   -0.000060851781   0.001977913546   0.000000000000
				   -0.000435999400   0.003742544569   0.000000000000
				   -0.001022385787   0.005271573574   0.000000000000
				   -0.001810461279   0.006558371282   0.000000000000
				   -0.002789331477   0.007597690209   0.000000000000
				   -0.003963032032   0.008411355196   0.000000000000
				   -0.005299288161   0.008998497294   0.000000000000
				   -0.006799534555   0.009386858121   0.000000000000
				   -0.008445744953   0.009596178661   0.000000000000
				   -0.010236821029   0.009651533940   0.000000000000
				   -0.012156859365   0.009574842310   0.000000000000
				   -0.014204514838   0.009382368543   0.000000000000
				   -0.016360104825   0.009079590984   0.000000000000
				   -0.018631388700   0.008653201427   0.000000000000
				   -0.020984970456   0.008075105183   0.000000000000
				   -0.023379358920   0.007298869479   0.000000000000
				   -0.025761970189   0.006254184686   0.000000000000
				   -0.028028047055   0.004853348316   0.000000000000
				   -0.030030159090   0.002985720865   0.000000000000
				   -0.031524980244   0.000541370119   0.000000000000
				   -0.032118927396   -0.002352060586   0.000000000000
				   -0.031653906095   -0.005353684624   0.000000000000
				   -0.030229376779   -0.008244079935   0.000000000000
				   -0.028002579402   -0.010836136362   0.000000000000
				   -0.025197359364   -0.012972964274   0.000000000000
				   -0.022043478145   -0.014580664835   0.000000000000
				   -0.018770207654   -0.015635524269   0.000000000000
				   -0.015570973606   -0.016164946084   0.000000000000
				   -0.012584987894   -0.016220998528   0.000000000000
				   -0.009866534495   -0.015853501405   0.000000000000
				   -0.007500549936   -0.015113170305   0.000000000000
				   -0.005488498785   -0.014037930334   0.000000000000
				   -0.003836401182   -0.012667556487   0.000000000000
				   -0.002533650604   -0.011047433936   0.000000000000
				   -0.001560922355   -0.009244023450   0.000000000000
				   -0.000878467926   -0.007326627251   0.000000000000
				   -0.000442348808   -0.005358095496   0.000000000000
				   -0.000218906819   -0.003426843029   0.000000000000
				   -0.000164153868   -0.001638281532   0.000000000000
				   0.000000000000   0.000000000000   0.000000000000
				   0.000000000000   0.000000000000   0.000000000000
				   -0.000067447347   0.002411721428   0.000000000000
				   -0.000450287584   0.004550191336   0.000000000000
				   -0.001051848236   0.006396100137   0.000000000000
				   -0.001861277030   0.007942462495   0.000000000000
				   -0.002866959132   0.009186288716   0.000000000000
				   -0.004073236321   0.010156404417   0.000000000000
				   -0.005447383452   0.010854450464   0.000000000000
				   -0.006991300640   0.011315859792   0.000000000000
				   -0.008687165451   0.011565895288   0.000000000000
				   -0.010534705327   0.011635601336   0.000000000000
				   -0.012518618546   0.011551709407   0.000000000000
				   -0.014639562882   0.011333863070   0.000000000000
				   -0.016880032156   0.010988659302   0.000000000000
				   -0.019252074816   0.010501002000   0.000000000000
				   -0.021726462416   0.009837833905   0.000000000000
				   -0.024267134325   0.008944218607   0.000000000000
				   -0.026828117260   0.007736621129   0.000000000000
				   -0.029309241283   0.006107831075   0.000000000000
				   -0.031564220516   0.003917910190   0.000000000000
				   -0.033338313325   0.001018271356   0.000000000000
				   -0.034180263627   -0.002468661572   0.000000000000
				   -0.033860738201   -0.006144383982   0.000000000000
				   -0.032444467760   -0.009729109142   0.000000000000
				   -0.030077104972   -0.012972527048   0.000000000000
				   -0.027001999884   -0.015652923488   0.000000000000