<VTKFile type="UnstructuredGrid" version="0.1" byte_order="BigEndian">
	<UnstructuredGrid>
		<Piece NumberOfPoints="1681" NumberOfCells="3200">
			<PointData Scalars="scalars" Vectors = "Velocity">
				<DataArray type="Float32" Name="Velocity" NumberOfComponents="3" Format="ascii">
				   0.000000000000   0.000000000000   0.000000000000
				   0.000000000000   0.000000000000   0.000000000000
				   0.000000000000   0.000000000000   0.000000000000
				   0.000000000000   0.000000000000   0.000000000000
				   0.000000000000   0.000000000000   0.000000000000
				   0.000000000000   0.000000000000   0.000000000000
				   0.000000000000   0.000000000000   0.000000000000
				   0.000000000000   0.000000000000   0.000000000000
				   0.000000000000   0.000000000000   0.000000000000
				   0.000000000000   0.000000000000   0.000000000000
				   0.000000000000   0.000000000000   0.000000000000
				   0.000000000000   0.000000000000   0.000000000000
				   0.000000000000   0.000000000000   0.000000000000
				   0.000000000000   0.000000000000   0.000000000000
				   0.000000000000   0.000000000000   0.000000000000
				   0.000000000000   0.000000000000   0.000000000000
				   0.000000000000   0.000000000000   0.000000000000
				   0.000000000000   0.000000000000   0.000000000000
				   0.000000000000   0.000000000000   0.000000000000
				   0.000000000000   0.000000000000   0.000000000000
				   0.000000000000   0.000000000000   0.000000000000
				   0.000000000000   0.000000000000   0.000000000000
				   0.000000000000   0.000000000000   0.000000000000
				   0.000000000000   0.000000000000   0.000000000000
				   0.000000000000   0.000000000000   0.000000000000
				   0.000000000000   0.000000000000   0.000000000000
				   0.000000000000   0.000000000000   0.000000000000
				   0.000000000000   0.000000000000   0.000000000000
				   0.000000000000   0.000000000000   0.000000000000
				   0.000000000000   0.000000000000   0.000000000000
				   0.000000000000   0.000000000000   0.000000000000
				   0.000000000000   0.000000000000   0.000000000000
				   0.000000000000   0.000000000000   0.000000000000
				   0.000000000000   0.000000000000   0.000000000000
				   0.000000000000   0.000000000000   0.000000000000
				   0.000000000000   0.000000000000   0.000000000000
				   0.000000000000   0.000000000000   0.000000000000
				   0.000000000000   0.000000000000   0.000000000000
				   0.000000000000   0.000000000000   0.000000000000
				   0.000000000000   0.000000000000   0.000000000000
				   0.000000000000   0.000000000000   0.000000000000
				   0.000000000000   0.000000000000   0.000000000000
				   -0.000019380209   0.000012103019   0.000000000000
				   -0.000048378514   0.000014486218   0.000000000000
				   -0.000080502372   0.000015308154   0.000000000000
				   -0.000114263372   0.000016200472   0.000000000000
				   -0.000149571428   0.000016984747   0.000000000000
				   -0.000187054647   0.000017581228   0.000000000000
				   -0.000226510679   0.000018143394   0.000000000000
				   -0.000267976987   0.000018491985   0.000000000000
				   -0.000311368817   0.000018720054   0.000000000000
				   -0.000356469538   0.000018705965   0.000000000000
				   -0.000402879998   0.000018556665   0.000000000000
				   -0.000450069502   0.000018151148   0.000000000000
				   -0.000497284040   0.000017668898   0.000000000000
				   -0.000543481153   0.000016646387   0.000000000000
				   -0.000587912793   0.000015388725   0.000000000000
				   -0.000628687599   0.000013883539   0.000000000000
				   -0.000663933540   0.000011853991   0.000000000000
				   -0.000691587300   0.000009469909   0.000000000000
				   -0.000707852623   0.000005922454   0.000000000000
				   -0.000710651983   -0.000000264383   0.000000000000
				   -0.000702821962   -0.000006205428   0.000000000000
				   -0.000684649374   -0.000009504564   0.000000000000
				   -0.000655805122   -0.000011923087   0.000000000000
				   -0.000619685166   -0.000013934970   0.000000000000
				   -0.000578538922   -0.000015419630   0.000000000000
				   -0.000533912599   -0.000016681388   0.000000000000
				   -0.000487537840   -0.000017637185   0.000000000000
				   -0.000440703428   -0.000018223501   0.000000000000
				   -0.000393937236   -0.000018478861   0.000000000000
				   -0.000347877224   -0.000018766279   0.000000000000
				   -0.000303551557   -0.000018611248   0.000000000000
				   -0.000260765905   -0.000018345219   0.000000000000
				   -0.000219856954   -0.000017939785   0.000000000000
				   -0.000180990084   -0.000017404287   0.000000000000
				   -0.000144296682   -0.000016680117   0.000000000000
				   -0.000109548752   -0.000015802046   0.000000000000
				   -0.000076430824   -0.000014862286   0.000000000000
				   -0.000045040173   -0.000013781257   0.000000000000
				   -0.000017620317   -0.000010439401   0.000000000000
				   0.000000000000   0.000000000000   0.000000000000
				   0.000000000000   0.000000000000   0.000000000000
				   -0.000019127859   0.000040009297   0.000000000000
				   -0.000051438652   0.000046030849   0.000000000000
				   -0.000087830417   0.000046731549   0.000000000000
				   -0.000126578568   0.000047231245   0.000000000000
				   -0.000167321433   0.000047721085   0.000000000000
				   -0.000210672732   0.000048059025   0.000000000000
				   -0.000256152112   0.000048273821   0.000000000000
				   -0.000304051609   0.000048147917   0.000000000000
				   -0.000354113148   0.000047722823   0.000000000000
				   -0.000406214930   0.000046857983   0.000000000000
				   -0.000459765953   0.000045605032   0.000000000000
				   -0.000514289056   0.000043831876   0.000000000000
				   -0.000568754891   0.000041655972   0.000000000000
				   -0.000622370911   0.000038594413   0.000000000000
				   -0.000673884473   0.000034921708   0.000000000000
				   -0.000721262442   0.000030588708   0.000000000000
				   -0.000762544826   0.000025268145   0.000000000000
				   -0.000795233874   0.000019090223   0.000000000000
				   -0.000815487704   0.000011057148   0.000000000000
				   -0.000821468825   -0.000000477493   0.000000000000
				   -0.000814069447   -0.000011689616   0.000000000000
				   -0.000793049400   -0.000019397067   0.000000000000
				   -0.000759917860   -0.000025591947   0.000000000000
				   -0.000718319130   -0.000030854992   0.000000000000
				   -0.000670737537   -0.000035127878   0.000000000000
				   -0.000619164046   -0.000038776605   0.000000000000
				   -0.000565427700   -0.000041744547   0.000000000000
				   -0.000511037967   -0.000044007574   0.000000000000
				   -0.000456712963   -0.000045623875   0.000000000000
				   -0.000403244158   -0.000046988801   0.000000000000
				   -0.000351551807   -0.000047708471   0.000000000000
				   -0.000301751205   -0.000048087367   0.000000000000
				   -0.000254080728   -0.000048158626   0.000000000000
				   -0.000208729563   -0.000047989464   0.000000000000
				   -0.000165867871   -0.000047591227   0.000000000000
				   -0.000125347694   -0.000047011522   0.000000000000
				   -0.000086858268   -0.000046305567   0.000000000000
				   -0.000050732653   -0.000044545467   0.000000000000
				   -0.000019120682   -0.000035956888   0.000000000000
				   0.000000000000   0.000000000000   0.000000000000
				   0.000000000000   0.000000000000   0.000000000000
				   -0.000018970415   0.000071210905   0.000000000000
				   -0.000051993346   0.000081625487   0.000000000000
				   -0.000089026820   0.000082660735   0.000000000000
				   -0.000128538185   0.000082849640   0.000000000000
				   -0.000170201547   0.000082962843   0.000000000000
				   -0.000214522407   0.000082883654   0.000000000000
				   -0.000260971819   0.000082554040   0.000000000000
				   -0.000309854275   0.000081736280   0.000000000000
				   -0.000360907580   0.000080406979   0.000000000000
				   -0.000414013921   0.000078410352   0.000000000000
				   -0.000468583034   0.000075733040   0.000000000000
				   -0.000524114061   0.000072224929   0.000000000000
				   -0.000579608167   0.000067920070   0.000000000000
				   -0.000634334414   0.000062425586   0.000000000000
				   -0.000686857207   0.000055877494   0.000000000000
				   -0.000735233025   0.000048207016   0.000000000000
				   -0.000777487741   0.000039102843   0.000000000000
				   -0.000811050708   0.000028583467   0.000000000000
				   -0.000832452491   0.000015845407   0.000000000000
				   -0.000839676404   -0.000000407568   0.000000000000
				   -0.000832320514   -0.000016472719   0.000000000000
				   -0.000810491665   -0.000029022321   0.000000000000
				   -0.000776712084   -0.000039539302   0.000000000000
				   -0.000734301786   -0.000048584283   0.000000000000
				   -0.000685772518   -0.000056189995   0.000000000000
				   -0.000633212918   -0.000062693521   0.000000000000
				   -0.000578390619   -0.000068102974   0.000000000000
				   -0.000522836028   -0.000072459598   0.000000000000
				   -0.000467413465   -0.000075824477   0.000000000000
				   -0.000412809916   -0.000078554420   0.000000000000
				   -0.000359935373   -0.000080437413   0.000000000000
				   -0.000309011012   -0.000081697873   0.000000000000
				   -0.000260216608   -0.000082437503   0.000000000000
				   -0.000213727376   -0.000082773180   0.000000000000
				   -0.000169736714   -0.000082794080   0.000000000000
				   -0.000128151791   -0.000082595886   0.000000000000
				   -0.000088696087   -0.000082201260   0.000000000000
				   -0.000051833750   -0.000079908091   0.000000000000
				   -0.000019307497   -0.000066151159   0.000000000000
				   0.000000000000   0.000000000000   0.000000000000
				   0.000000000000   0.000000000000   0.000000000000
				   -0.000019001798   0.000105637817   0.000000000000
				   -0.000052460159   0.000120625568   0.000000000000
				   -0.000089901785   0.000121989937   0.000000000000
				   -0.000129845341   0.000121842850   0.000000000000
				   -0.000171998605   0.000121489852   0.000000000000
				   -0.000216812509   0.000120864515   0.000000000000
				   -0.000263734633   0.000119863594   0.000000000000
				   -0.000313051749   0.000118219478   0.000000000000
				   -0.000364512594   0.000115849523   0.000000000000
				   -0.000417988497   0.000112568542   0.000000000000
				   -0.000472914665   0.000108301277   0.000000000000
				   -0.000528761565   0.000102871334   0.000000000000
				   -0.000584594745   0.000096239916   0.000000000000
				   -0.000639672648   0.000088064227   0.000000000000
				   -0.000692495084   0.000078368653   0.000000000000
				   -0.000741196941   0.000067055970   0.000000000000
				   -0.000783782558   0.000053831491   0.000000000000
				   -0.000817686196   0.000038617803   0.000000000000
				   -0.000839738737   0.000020837313   0.000000000000
				   -0.000847512782   -0.000000331595   0.000000000000
				   -0.000839848537   -0.000021429998   0.000000000000
				   -0.000817437486   -0.000039127983   0.000000000000
				   -0.000783348320   -0.000054313597   0.000000000000
				   -0.000740620565   -0.000067482289   0.000000000000
				   -0.000691773709   -0.000078732957   0.000000000000
				   -0.000638905670   -0.000088374688   0.000000000000
				   -0.000583742146   -0.000096476077   0.000000000000
				   -0.000527809309   -0.000103135935   0.000000000000
				   -0.000472053569   -0.000108438825   0.000000000000
				   -0.000417066125   -0.000112722141   0.000000000000
				   -0.000363770049   -0.000115912233   0.000000000000
				   -0.000312413933   -0.000118210055   0.000000000000
				   -0.000263152788   -0.000119771087   0.000000000000
				   -0.000216154436   -0.000120754906   0.000000000000
				   -0.000171641551   -0.000121306986   0.000000000000
				   -0.000129583790   -0.000121548498   0.000000000000
				   -0.000089697526   -0.000121443356   0.000000000000
				   -0.000052408784   -0.000118733668   0.000000000000
				   -0.000019339291   -0.000099841780   0.000000000000
				   0.000000000000   0.000000000000   0.000000000000
				   0.000000000000   0.000000000000   0.000000000000
				   -0.000019250472   0.000143172574   0.000000000000
				   -0.000053053284   0.000163094067   0.000000000000
				   -0.000090893505   0.000164779519   0.000000000000
				   -0.000131284214   0.000164255633   0.000000000000
				   -0.000173938349   0.000163358657   0.000000000000
				   -0.000219277781   0.000162074221   0.000000000000
				   -0.000266723684   0.000160278693   0.000000000000
				   -0.000316552358   0.000157673643   0.000000000000
				   -0.000368512007   0.000154127397   0.000000000000
				   -0.000422465543   0.000149413098   0.000000000000
				   -0.000477857681   0.000143402325   0.000000000000
				   -0.000534141487   0.000135883069   0.000000000000
				   -0.000590420567   0.000126751344   0.000000000000
				   -0.000645936729   0.000115666060   0.000000000000
				   -0.000699156551   0.000102577734   0.000000000000
				   -0.000748258644   0.000087351482   0.000000000000
				   -0.000791233837   0.000069697605   0.000000000000
				   -0.000825528236   0.000049487329   0.000000000000
				   -0.000848158261   0.000026303011   0.000000000000
				   -0.000856303510   -0.000000265708   0.000000000000
				   -0.000848298622   -0.000026828414   0.000000000000
				   -0.000825327154   -0.000049988008   0.000000000000
				   -0.000790837135   -0.000070163649   0.000000000000
				   -0.000747708722   -0.000087770988   0.000000000000
				   -0.000698460279   -0.000102942286   0.000000000000
				   -0.000645185683   -0.000115979729   0.000000000000
				   -0.000589591430   -0.000127000023   0.000000000000
				   -0.000533204040   -0.000136149898   0.000000000000
				   -0.000477011913   -0.000143552994   0.000000000000
				   -0.000421560009   -0.000149564481   0.000000000000
				   -0.000367777602   -0.000154196552   0.000000000000
				   -0.000315924291   -0.000157673594   0.000000000000
				   -0.000266146109   -0.000160195986   0.000000000000
				   -0.000218612984   -0.000161965686   0.000000000000
				   -0.000173577312   -0.000163167828   0.000000000000
				   -0.000131048011   -0.000163930886   0.000000000000
				   -0.000090737259   -0.000164144458   0.000000000000
				   -0.000053051995   -0.000160977379   0.000000000000
				   -0.000019565355   -0.000136550637   0.000000000000
				   0.000000000000   0.000000000000   0.000000000000
				   0.000000000000   0.000000000000   0.000000000000
				   -0.000019613115   0.000184374652   0.000000000000
				   -0.000053794571   0.000209854172   0.000000000000
				   -0.000092073846   0.000211855608   0.000000000000
				   -0.000132969495   0.000210884696   0.000000000000
				   -0.000176192038   0.000209355085   0.000000000000
				   -0.000222149710   0.000207298917   0.000000000000
				   -0.000270241263   0.000204580757   0.000000000000
				   -0.000320741174   0.000200869028   0.000000000000
				   -0.000373386957   0.000195987635   0.000000000000
				   -0.000428030337   0.000189663286   0.000000000000
				   -0.000484108578   0.000181718144   0.000000000000
				   -0.000541064870   0.000171891561   0.000000000000
				   -0.000598011873   0.000160027894   0.000000000000
				   -0.000654180089   0.000145750950   0.000000000000
				   -0.000708009114   0.000128956171   0.000000000000
				   -0.000757694955   0.000109471689   0.000000000000
				   -0.000801220811   0.000086998583   0.000000000000
				   -0.000836034550   0.000061395406   0.000000000000
				   -0.000859242347   0.000032351319   0.000000000000
				   -0.000867712428   -0.000000246495   0.000000000000
				   -0.000859408993   -0.000032871027   0.000000000000
				   -0.000835861728   -0.000061920845   0.000000000000
				   -0.000800835170   -0.000087488780   0.000000000000
				   -0.000757145206   -0.000109917915   0.000000000000
				   -0.000707306400   -0.000129347329   0.000000000000
				   -0.000653413865   -0.000146089448   0.000000000000
				   -0.000597170099   -0.000160301572   0.000000000000
				   -0.000540108557   -0.000172174377   0.000000000000
				   -0.000483244607   -0.000181878668   0.000000000000
				   -0.000427110838   -0.000189815692   0.000000000000
				   -0.000372640729   -0.000196051871   0.000000000000
				   -0.000320104901   -0.000200861024   0.000000000000
				   -0.000269651811   -0.000204487214   0.000000000000
				   -0.000221461567   -0.000207172571   0.000000000000
				   -0.000175810268   -0.000209131292   0.000000000000
				   -0.000132715783   -0.000210499486   0.000000000000
				   -0.000091888675   -0.000211092480   0.000000000000
				   -0.000053721534   -0.000207430018   0.000000000000
				   -0.000019789356   -0.000176964989   0.000000000000
				   0.000000000000   0.000000000000   0.000000000000
				   0.000000000000   0.000000000000   0.000000000000
				   -0.000020222666   0.000229155659   0.000000000000
				   -0.000054825667   0.000260627800   0.000000000000
				   -0.000093581022   0.000262977981   0.000000000000
				   -0.000135044865   0.000261543979   0.000000000000
				   -0.000178921890   0.000259343911   0.000000000000
				   -0.000225614413   0.000256450438   0.000000000000
				   -0.000274504172   0.000252716682   0.000000000000
				   -0.000325864056   0.000247777365   0.000000000000
				   -0.000379411893   0.000241418843   0.000000000000
				   -0.000434982987   0.000233319931   0.000000000000
				   -0.000491996378   0.000223254924   0.000000000000
				   -0.000549882975   0.000210910926   0.000000000000
				   -0.000607745726   0.000196085862   0.000000000000
				   -0.000664806736   0.000178342847   0.000000000000
				   -0.000719475082   0.000157534341   0.000000000000
				   -0.000769945134   0.000133455986   0.000000000000
				   -0.000814191670   0.000105788467   0.000000000000
				   -0.000849649163   0.000074401546   0.000000000000
				   -0.000873448282   0.000039050883   0.000000000000
				   -0.000882227491   -0.000000180773   0.000000000000
				   -0.000873661633   -0.000039460822   0.000000000000
				   -0.000849504692   -0.000074846747   0.000000000000
				   -0.000813808994   -0.000106215725   0.000000000000
				   -0.000769386650   -0.000133850687   0.000000000000
				   -0.000718751847   -0.000157880386   0.000000000000
				   -0.000664012245   -0.000178640652   0.000000000000
				   -0.000606876432   -0.000196322469   0.000000000000
				   -0.000548892036   -0.000211159974   0.000000000000
				   -0.000491099341   -0.000223374718   0.000000000000
				   -0.000434037652   -0.000233430908   0.000000000000
				   -0.000378648017   -0.000241433803   0.000000000000
				   -0.000325217935   -0.000247719182   0.000000000000
				   -0.000273904846   -0.000252571507   0.000000000000
				   -0.000224907029   -0.000256272610   0.000000000000
				   -0.000178519714   -0.000259061482   0.000000000000
				   -0.000134768734   -0.000261093029   0.000000000000
				   -0.000093374656   -0.000262119771   0.000000000000
				   -0.000054715302   -0.000257942919   0.000000000000
				   -0.000020323130   -0.000220880579   0.000000000000
				   0.000000000000   0.000000000000   0.000000000000
				   0.000000000000   0.000000000000   0.000000000000
				   -0.000020996879   0.000278086575   0.000000000000
				   -0.000056226900   0.000316277160   0.000000000000
				   -0.000095643937   0.000319054510   0.000000000000
				   -0.000137841749   0.000317147846   0.000000000000
				   -0.000182537801   0.000314241995   0.000000000000
				   -0.000230149588   0.000310441920   0.000000000000
				   -0.000280045990   0.000305588629   0.000000000000
				   -0.000332499184   0.000299284790   0.000000000000
				   -0.000387202583   0.000291280918   0.000000000000
				   -0.000443972655   0.000281207724   0.000000000000
				   -0.000502202325   0.000268792976   0.000000000000
				   -0.000561306199   0.000253666124   0.000000000000
				   -0.000620366520   0.000235577537   0.000000000000
				   -0.000678592475   0.000214018284   0.000000000000
				   -0.000734356254   0.000188801750   0.000000000000
				   -0.000785836329   0.000159696403   0.000000000000
				   -0.000830992599   0.000126355404   0.000000000000
				   -0.000867230802   0.000088668528   0.000000000000
				   -0.000891664276   0.000046436543   0.000000000000
				   -0.000900762431   -0.000000129144   0.000000000000
				   -0.000891957239   -0.000046762892   0.000000000000
				   -0.000867139505   -0.000089057498   0.000000000000
				   -0.000830634469   -0.000126742652   0.000000000000
				   -0.000785290160   -0.000160058419   0.000000000000
				   -0.000733628809   -0.000189115879   0.000000000000
				   -0.000677784224   -0.000214283125   0.000000000000
				   -0.000619479806   -0.000235779349   0.000000000000
				   -0.000560286763   -0.000253881263   0.000000000000
				   -0.000501272635   -0.000268863881   0.000000000000
				   -0.000442999368   -0.000281269389   0.000000000000
				   -0.000386417861   -0.000291230849   0.000000000000
				   -0.000331836822   -0.000299155403   0.000000000000
				   -0.000279429110   -0.000305368582   0.000000000000
				   -0.000229412131   -0.000310188741   0.000000000000
				   -0.000182098375   -0.000313879174   0.000000000000
				   -0.000137516974   -0.000316613637   0.000000000000
				   -0.000095390065   -0.000318068482   0.000000000000
				   -0.000056071069   -0.000313242935   0.000000000000
				   -0.000021046481   -0.000268852760   0.000000000000
				   0.000000000000   0.000000000000   0.000000000000
				   0.000000000000   0.000000000000   0.000000000000
				   -0.000022032760   0.000331845976   0.000000000000
				   -0.000058090240   0.000377398566   0.000000000000
				   -0.000098354686   0.000380684361   0.000000000000
				   -0.000141487238   0.000378304831   0.000000000000
				   -0.000187224811   0.000374656016   0.000000000000
				   -0.000236005447   0.000369873688   0.000000000000
				   -0.000287177278   0.000363791127   0.000000000000
				   -0.000341013573   0.000355978076   0.000000000000
				   -0.000397177346   0.000346150556   0.000000000000
				   -0.000455465663   0.000333887786   0.000000000000
				   -0.000515238824   0.000318868461   0.000000000000
				   -0.000575891328   0.000300658249   0.000000000000
				   -0.000636472433   0.000278961868   0.000000000000
				   -0.000696172614   0.000253191837   0.000000000000
				   -0.000753318022   0.000223123831   0.000000000000
				   -0.000806058301   0.000188503847   0.000000000000
				   -0.000852330123   0.000148953009   0.000000000000
				   -0.000889495755   0.000104382880   0.000000000000
				   -0.000914626233   0.000054621744   0.000000000000
				   -0.000924067661   -0.000000032375   0.000000000000
				   -0.000915026978   -0.000054776290   0.000000000000
				   -0.000889471483   -0.000104632341   0.000000000000
				   -0.000852001263   -0.000149223739   0.000000000000
				   -0.000805524360   -0.000188762361   0.000000000000
				   -0.000752580737   -0.000223339855   0.000000000000
				   -0.000695343587   -0.000253361349   0.000000000000
				   -0.000635558851   -0.000279070292   0.000000000000
				   -0.000574831329   -0.000300786459   0.000000000000
				   -0.000514263830   -0.000318839843   0.000000000000
				   -0.000454451287   -0.000333857104   0.000000000000
				   -0.000396358014   -0.000345993185   0.000000000000
				   -0.000340322902   -0.000355738437   0.000000000000
				   -0.000286535905   -0.000363460544   0.000000000000
				   -0.000235236137   -0.000369515821   0.000000000000
				   -0.000186754850   -0.000374191942   0.000000000000
				   -0.000141122852   -0.000377682121   0.000000000000
				   -0.000098058560   -0.000379584520   0.000000000000
				   -0.000057883806   -0.000374020466   0.000000000000
				   -0.000022024592   -0.000321508885   0.000000000000
				   0.000000000000   0.000000000000   0.000000000000
				   0.000000000000   0.000000000000   0.000000000000
				   -0.000023264182   0.000391219716   0.000000000000
				   -0.000060450148   0.000445025017   0.000000000000
				   -0.000101871820   0.000448906478   0.000000000000
				   -0.000146253802   0.000446023105   0.000000000000
				   -0.000193357095   0.000441568014   0.000000000000
				   -0.000243640616   0.000435711919   0.000000000000
				   -0.000296431378   0.000428276952   0.000000000000
				   -0.000352006505   0.000418794317   0.000000000000
				   -0.000409998060   0.000406939775   0.000000000000
				   -0.000470186681   0.000392232746   0.000000000000
				   -0.000531892042   0.000374300858   0.000000000000
				   -0.000594483355   0.000352642878   0.000000000000
				   -0.000656962033   0.000326920982   0.000000000000
				   -0.000718496924   0.000296461664   0.000000000000
				   -0.000777354762   0.000261005327   0.000000000000
				   -0.000831643805   0.000220280405   0.000000000000
				   -0.000879267756   0.000173874482   0.000000000000
				   -0.000917532197   0.000121720032   0.000000000000
				   -0.000943450685   0.000063661201   0.000000000000
				   -0.000953279500   0.000000056460   0.000000000000
				   -0.000943999405   -0.000063664001   0.000000000000
				   -0.000917609518   -0.000121851920   0.000000000000
				   -0.000878996447   -0.000174046890   0.000000000000
				   -0.000831146520   -0.000220448958   0.000000000000
				   -0.000776627297   -0.000261130860   0.000000000000
				   -0.000717664096   -0.000296537966   0.000000000000
				   -0.000656036044   -0.000326935236   0.000000000000
				   -0.000593391601   -0.000352683394   0.000000000000
				   -0.000530877612   -0.000374166925   0.000000000000
				   -0.000469131257   -0.000392103148   0.000000000000
				   -0.000409140501   -0.000406666226   0.000000000000
				   -0.000351279102   -0.000418436361   0.000000000000
				   -0.000295755280   -0.000427826445   0.000000000000
				   -0.000242829586   -0.000435235233   0.000000000000
				   -0.000192847361   -0.000440976981   0.000000000000
				   -0.000145843024   -0.000445271862   0.000000000000
				   -0.000101523061   -0.000447635447   0.000000000000
				   -0.000060183503   -0.000441229646   0.000000000000
				   -0.000023207378   -0.000379733905   0.000000000000
				   0.000000000000   0.000000000000   0.000000000000
				   0.000000000000   0.000000000000   0.000000000000
				   -0.000024828645   0.000457150620   0.000000000000
				   -0.000063494228   0.000520039656   0.000000000000
				   -0.000106426860   0.000524603571   0.000000000000
				   -0.000152433162   0.000521203861   0.000000000000
				   -0.000201290057   0.000515896389   0.000000000000
				   -0.000253481286   0.000508885343   0.000000000000
				   -0.000308306730   0.000499975503   0.000000000000
				   -0.000366049728   0.000488651488   0.000000000000
				   -0.000426311279   0.000474540174   0.000000000000
				   -0.000488853926   0.000457095671   0.000000000000
				   -0.000552947060   0.000435894889   0.000000000000
				   -0.000617928466   0.000410367749   0.000000000000
				   -0.000682738025   0.000380134447   0.000000000000
				   -0.000746518342   0.000344431098   0.000000000000
				   -0.000807459800   0.000302968901   0.000000000000
				   -0.000863616008   0.000255464495   0.000000000000
				   -0.000912850282   0.000201469923   0.000000000000
				   -0.000952398268   0.000140938877   0.000000000000
				   -0.000979209540   0.000073720455   0.000000000000
				   -0.000989480588   0.000000215359   0.000000000000
				   -0.000979945342   -0.000073437410   0.000000000000
				   -0.000952599113   -0.000140828140   0.000000000000
				   -0.000912642646   -0.000201426648   0.000000000000
				   -0.000863153590   -0.000255433638   0.000000000000
				   -0.000806732508   -0.000302900875   0.000000000000
				   -0.000745670397   -0.000344316563   0.000000000000
				   -0.000681788906   -0.000379962647   0.000000000000
				   -0.000616791986   -0.000410236724   0.000000000000
				   -0.000551879558   -0.000435576267   0.000000000000
				   -0.000487743435   -0.000456797926   0.000000000000
				   -0.000425400887   -0.000474086105   0.000000000000
				   -0.000365268768   -0.000488117260   0.000000000000
				   -0.000307578126   -0.000499355308   0.000000000000
				   -0.000252610457   -0.000508248672   0.000000000000
				   -0.000200729047   -0.000515147753   0.000000000000
				   -0.000151975021   -0.000520308320   0.000000000000
				   -0.000106042148   -0.000523156640   0.000000000000
				   -0.000063199496   -0.000515778321   0.000000000000
				   -0.000024763160   -0.000444216262   0.000000000000
				   0.000000000000   0.000000000000   0.000000000000
				   0.000000000000   0.000000000000   0.000000000000
				   -0.000026702085   0.000530959161   0.000000000000
				   -0.000067324988   0.000604035531   0.000000000000
				   -0.000112240488   0.000609332319   0.000000000000
				   -0.000160357440   0.000605343481   0.000000000000
				   -0.000211469110   0.000599094362   0.000000000000
				   -0.000266090154   0.000590810178   0.000000000000
				   -0.000323478739   0.000580264814   0.000000000000
				   -0.000383932660   0.000566879234   0.000000000000
				   -0.000447017222   0.000550221626   0.000000000000
				   -0.000512472804   0.000529674966   0.000000000000
				   -0.000579509017   0.000504763168   0.000000000000
				   -0.000647424762   0.000474845231   0.000000000000
				   -0.000715083197   0.000439501374   0.000000000000
				   -0.000781594033   0.000397875887   0.000000000000
				   -0.000845052407   0.000349657802   0.000000000000
				   -0.000903444552   0.000294558502   0.000000000000
				   -0.000954586248   0.000232096072   0.000000000000
				   -0.000995631101   0.000162249290   0.000000000000
				   -0.001023465243   0.000084864466   0.000000000000
				   -0.001034253756   0.000000368807   0.000000000000
				   -0.001024449804   -0.000084315120   0.000000000000
				   -0.000996010085   -0.000161922836   0.000000000000
				   -0.000954485051   -0.000231862569   0.000000000000
				   -0.000903054239   -0.000294348724   0.000000000000
				   -0.000844354633   -0.000349409880   0.000000000000