<VTKFile type="UnstructuredGrid" version="0.1" byte_order="BigEndian">
	<UnstructuredGrid>
		<Piece NumberOfPoints="16" NumberOfCells="18">
			<PointData Scalars="scalars" Vectors = "Velocity">
				<DataArray type="Float32" Name="Velocity" NumberOfComponents="3" Format="ascii">
				   0.000000000000   0.000000000000   0.000000000000
				   0.000000000000   0.000000000000   0.000000000000
				   0.000000000000   0.000000000000   0.000000000000
				   0.000000000000   0.000000000000   0.000000000000
				   0.000000000000   0.000000000000   0.000000000000
				   0.551983516826   0.590003558040   0.000000000000
				   0.636383779585   0.602073202323   0.000000000000
				   0.000000000000   0.000000000000   0.000000000000
				   0.000000000000   0.000000000000   0.000000000000
				   0.556965730831   0.721959072152   0.000000000000
				   0.749334437087   0.816138173921   0.000000000000
				   0.000000000000   0.000000000000   0.000000000000
				   0.000000000000   0.000000000000   0.000000000000
				   0.000000000000   0.000000000000   0.000000000000
				   0.000000000000   0.000000000000   0.000000000000
				   0.000000000000   0.000000000000   0.000000000000
				</DataArray>
				<DataArray type="Float32" Name="Pressure" Format="ascii">
				   0.000000000000
				   0.111110888889
				   0.444444888889
				   1.000000000000
				   -0.111110888889
				   -2.680224154996
				   -1.636166822416
				   0.888889111111
				   -0.444444888889
				   -1.662567320537
				   3.613118707302
				   0.555555111111
				   -1.000000000000
				   -0.888889111111
				   -0.555555111111
				   0.000000000000
				</DataArray>
			</PointData>
			<Points>
				<DataArray type="Float32" NumberOfComponents="3" Format="ascii">
				   0.000000000000	0.000000000000	0.000000000000
				   0.333333000000	0.000000000000	0.000000000000
				   0.666667000000	0.000000000000	0.000000000000
				   1.000000000000	0.000000000000	0.000000000000
				   0.000000000000	0.333333000000	0.000000000000
				   0.333333000000	0.333333000000	0.000000000000
				   0.666667000000	0.333333000000	0.000000000000
				   1.000000000000	0.333333000000	0.000000000000
				   0.000000000000	0.666667000000	0.000000000000
				   0.333333000000	0.666667000000	0.000000000000
				   0.666667000000	0.666667000000	0.000000000000
				   1.000000000000	0.666667000000	0.000000000000
				   0.000000000000	1.000000000000	0.000000000000
				   0.333333000000	1.000000000000	0.000000000000
				   0.666667000000	1.000000000000	0.000000000000
				   1.000000000000	1.000000000000	0.000000000000
				</DataArray>
			</Points>
			<Cells>
				<DataArray type="Int32" Name="connectivity" Format="ascii">
				   0	1	5
				   0	5	4
				   1	2	6
				   1	6	5
				   2	3	7
				   2	7	6
				   4	5	9
				   4	9	8
				   5	6	10
				   5	10	9
				   6	7	11
				   6	11	10
				   8	9	13
				   8	13	12
				   9	10	14
				   9	14	13
				   10	11	15
				   10	15	14
				</DataArray>
				<DataArray type="Int32" Name="offsets" Format="ascii">
				   3
				   6
				   9
				   12
				   15
				   18
				   21
				   24
				   27
				   30
				   33
				   36
				   39
				   42
				   45
				   48
				   51
				   54
				</DataArray>
				<DataArray type="Int32" Name="types" Format="ascii">
				   5
				   5
				   5
				   5
				   5
				   5
				   5
				   5
				   5
				   5
				   5
				   5
				   5
				   5
				   5
				   5
				   5
				   5
				</DataArray>
			</Cells>
		</Piece>
	</UnstructuredGrid>
</VTKFile>
