<VTKFile type="UnstructuredGrid" version="0.1" byte_order="BigEndian">
	<UnstructuredGrid>
		<Piece NumberOfPoints="12" NumberOfCells="12">
			<PointData Scalars="scalars" Vectors = "Velocity">
				<DataArray type="Float32" Name="Velocity" NumberOfComponents="3" Format="ascii">
				   0.000000000000   0.000000000000   0.000000000000
				   0.000000000000   0.000000000000   0.000000000000
				   0.000000000000   0.000000000000   0.000000000000
				   0.000000000000   0.000000000000   0.000000000000
				   0.000000000000   0.000000000000   0.000000000000
				   0.011455874274   0.066433955512   0.000000000000
				   0.012864173983   0.070959618501   0.000000000000
				   0.000000000000   0.000000000000   0.000000000000
				   0.000000000000   0.000000000000   0.000000000000
				   0.000000000000   0.000000000000   0.000000000000
				   0.000000000000   0.000000000000   0.000000000000
				   0.000000000000   0.000000000000   0.000000000000
				</DataArray>
				<DataArray type="Float32" Name="Pressure" Format="ascii">
				   0.000000000000
				   0.111110888889
				   0.444444888889
				   1.000000000000
				   -0.250000000000
				   -0.115040476300
				   0.140848582849
				   0.750000000000
				   -1.000000000000
				   -0.888889111111
				   -0.555555111111
				   0.000000000000
				</DataArray>
			</PointData>
			<Points>
				<DataArray type="Float32" NumberOfComponents="3" Format="ascii">
				   0.000000000000	0.000000000000	0.000000000000
				   0.333333000000	0.000000000000	0.000000000000
				   0.666667000000	0.000000000000	0.000000000000
				   1.000000000000	0.000000000000	0.000000000000
				   0.000000000000	0.500000000000	0.000000000000
				   0.333333000000	0.500000000000	0.000000000000
				   0.666667000000	0.500000000000	0.000000000000
				   1.000000000000	0.500000000000	0.000000000000
				   0.000000000000	1.000000000000	0.000000000000
				   0.333333000000	1.000000000000	0.000000000000
				   0.666667000000	1.000000000000	0.000000000000
				   1.000000000000	1.000000000000	0.000000000000
				</DataArray>
			</Points>
			<Cells>
				<DataArray type="Int32" Name="connectivity" Format="ascii">
				   0	1	5
				   0	5	4
				   1	2	6
				   1	6	5
				   2	3	7
				   2	7	6
				   4	5	9
				   4	9	8
				   5	6	10
				   5	10	9
				   6	7	11
				   6	11	10
				</DataArray>
				<DataArray type="Int32" Name="offsets" Format="ascii">
				   3
				   6
				   9
				   12
				   15
				   18
				   21
				   24
				   27
				   30
				   33
				   36
				</DataArray>
				<DataArray type="Int32" Name="types" Format="ascii">
				   5
				   5
				   5
				   5
				   5
				   5
				   5
				   5
				   5
				   5
				   5
				   5
				</DataArray>
			</Cells>
		</Piece>
	</UnstructuredGrid>
</VTKFile>
