<VTKFile type="UnstructuredGrid" version="0.1" byte_order="BigEndian">
	<UnstructuredGrid>
		<Piece NumberOfPoints="441" NumberOfCells="800">
			<PointData Scalars="scalars" Vectors = "Velocity">
				<DataArray type="Float32" Name="Velocity" NumberOfComponents="3" Format="ascii">
				   0.000000000000   0.000000000000   0.000000000000
				   0.000000000000   0.000000000000   0.000000000000
				   0.000000000000   0.000000000000   0.000000000000
				   0.000000000000   0.000000000000   0.000000000000
				   0.000000000000   0.000000000000   0.000000000000
				   0.000000000000   0.000000000000   0.000000000000
				   0.000000000000   0.000000000000   0.000000000000
				   0.000000000000   0.000000000000   0.000000000000
				   0.000000000000   0.000000000000   0.000000000000
				   0.000000000000   0.000000000000   0.000000000000
				   0.000000000000   0.000000000000   0.000000000000
				   0.000000000000   0.000000000000   0.000000000000
				   0.000000000000   0.000000000000   0.000000000000
				   0.000000000000   0.000000000000   0.000000000000
				   0.000000000000   0.000000000000   0.000000000000
				   0.000000000000   0.000000000000   0.000000000000
				   0.000000000000   0.000000000000   0.000000000000
				   0.000000000000   0.000000000000   0.000000000000
				   0.000000000000   0.000000000000   0.000000000000
				   0.000000000000   0.000000000000   0.000000000000
				   0.000000000000   0.000000000000   0.000000000000
				   0.000000000000   0.000000000000   0.000000000000
				   0.050583063838   0.051088066521   0.000000000000
				   0.075719783684   0.078909749280   0.000000000000
				   0.094022961728   0.096443750096   0.000000000000
				   0.109240886535   0.108294603054   0.000000000000
				   0.122900896343   0.116457262257   0.000000000000
				   0.135153496357   0.122048692497   0.000000000000
				   0.146339613809   0.125297034057   0.000000000000
				   0.156074975308   0.126520118836   0.000000000000
				   0.164431770855   0.125236102834   0.000000000000
				   0.170672785828   0.121614183592   0.000000000000
				   0.174131321259   0.115824899200   0.000000000000
				   0.174674785059   0.107565408958   0.000000000000
				   0.171191125305   0.097342510001   0.000000000000
				   0.163518012172   0.084588310958   0.000000000000
				   0.151466067168   0.068958422996   0.000000000000
				   0.134856423949   0.050766036435   0.000000000000
				   0.114106258186   0.030376368798   0.000000000000
				   0.088802881743   0.010172459620   0.000000000000
				   0.058553736913   -0.004254018221   0.000000000000
				   0.000000000000   0.000000000000   0.000000000000
				   0.000000000000   0.000000000000   0.000000000000
				   0.078197082567   0.076812646771   0.000000000000
				   0.123559905692   0.125047231413   0.000000000000
				   0.159783612745   0.156485723569   0.000000000000
				   0.190096173698   0.177708184730   0.000000000000
				   0.216906608419   0.192118900410   0.000000000000
				   0.240707432519   0.201892211854   0.000000000000
				   0.261889939248   0.207742136501   0.000000000000
				   0.280620628515   0.209868987277   0.000000000000
				   0.296067819326   0.208190129431   0.000000000000
				   0.307603856134   0.202511567985   0.000000000000
				   0.313994599130   0.193222514495   0.000000000000
				   0.313969912595   0.180537433851   0.000000000000
				   0.307292687226   0.164111922355   0.000000000000
				   0.292391804491   0.144074975673   0.000000000000
				   0.268990652554   0.119740291831   0.000000000000
				   0.237660885503   0.090867627874   0.000000000000
				   0.197733071457   0.059234039693   0.000000000000
				   0.149444438678   0.027901435866   0.000000000000
				   0.094442040082   0.003621844828   0.000000000000
				   0.000000000000   0.000000000000   0.000000000000
				   0.000000000000   0.000000000000   0.000000000000
				   0.095832808738   0.095807011899   0.000000000000
				   0.155510224095   0.161980625403   0.000000000000
				   0.206059176310   0.207604520193   0.000000000000
				   0.249573208360   0.238804996904   0.000000000000
				   0.287828187734   0.260448209107   0.000000000000
				   0.321839394668   0.275122226328   0.000000000000
				   0.351804430747   0.284325034709   0.000000000000
				   0.378250082385   0.288333106983   0.000000000000
				   0.399792615026   0.287281822333   0.000000000000
				   0.415566404886   0.281033355412   0.000000000000
				   0.423983736403   0.270012188481   0.000000000000
				   0.423358480555   0.254559995434   0.000000000000
				   0.413263369530   0.234541461904   0.000000000000
				   0.391955493694   0.209585725700   0.000000000000
				   0.359123182533   0.178726577250   0.000000000000
				   0.315215045161   0.142070295429   0.000000000000
				   0.259735362551   0.101251970598   0.000000000000
				   0.193246023764   0.059517892981   0.000000000000
				   0.119512475770   0.022641952734   0.000000000000
				   0.000000000000   0.000000000000   0.000000000000
				   0.000000000000   0.000000000000   0.000000000000
				   0.108233932122   0.111556085469   0.000000000000
				   0.177871803214   0.193012165496   0.000000000000
				   0.239155159175   0.251432404098   0.000000000000
				   0.292978919980   0.292741555667   0.000000000000
				   0.340782725572   0.321674997291   0.000000000000
				   0.383177988092   0.341676113284   0.000000000000
				   0.420731600516   0.354503013034   0.000000000000
				   0.453315573794   0.361247998589   0.000000000000
				   0.479928491904   0.361553817585   0.000000000000
				   0.498782148982   0.355895255343   0.000000000000
				   0.508263027991   0.344538723358   0.000000000000
				   0.506910415570   0.327694362684   0.000000000000
				   0.493735941368   0.305517653536   0.000000000000
				   0.467357593916   0.277003602177   0.000000000000
				   0.426973947761   0.241700741946   0.000000000000
				   0.373183180054   0.199242613841   0.000000000000
				   0.305928375498   0.150359856111   0.000000000000
				   0.225972431042   0.097863773888   0.000000000000
				   0.138370155003   0.046018303327   0.000000000000
				   0.000000000000   0.000000000000   0.000000000000
				   0.000000000000   0.000000000000   0.000000000000
				   0.117146182982   0.125601154687   0.000000000000
				   0.194123413977   0.220140315917   0.000000000000
				   0.263244096094   0.290048624798   0.000000000000
				   0.325101086471   0.340481885467   0.000000000000
				   0.380139716550   0.376702857704   0.000000000000
				   0.429294369536   0.401990400147   0.000000000000
				   0.472563414993   0.418894539539   0.000000000000
				   0.510020214833   0.428542007909   0.000000000000
				   0.540050391801   0.431114445954   0.000000000000
				   0.561078006492   0.426771182159   0.000000000000
				   0.571104591807   0.415953205326   0.000000000000
				   0.568708632439   0.398996764115   0.000000000000
				   0.553304544274   0.375481033287   0.000000000000
				   0.522822882200   0.344886927698   0.000000000000
				   0.477062872818   0.306210639514   0.000000000000
				   0.416199828368   0.258977973367   0.000000000000
				   0.340091784913   0.203037969382   0.000000000000
				   0.250336705225   0.139591114268   0.000000000000
				   0.153044727147   0.070871468950   0.000000000000
				   0.000000000000   0.000000000000   0.000000000000
				   0.000000000000   0.000000000000   0.000000000000
				   0.123627881198   0.137907669361   0.000000000000
				   0.205830797525   0.244066148772   0.000000000000
				   0.280875400000   0.324030873107   0.000000000000
				   0.348390166258   0.383115948485   0.000000000000
				   0.409111225049   0.425996441905   0.000000000000
				   0.463155078770   0.456578031006   0.000000000000
				   0.510803281210   0.477448305402   0.000000000000
				   0.551808620238   0.490349301854   0.000000000000
				   0.584297440259   0.495616835961   0.000000000000
				   0.606859777811   0.493298233084   0.000000000000
				   0.617034399976   0.483921459567   0.000000000000
				   0.614049751605   0.467218621040   0.000000000000
				   0.596962431271   0.443187800395   0.000000000000
				   0.563606119712   0.411471269724   0.000000000000
				   0.513816264600   0.370623115001   0.000000000000
				   0.448009125660   0.319123477026   0.000000000000
				   0.365612306709   0.256151186906   0.000000000000
				   0.268967097644   0.181448980220   0.000000000000
				   0.164285853684   0.095879593326   0.000000000000
				   0.000000000000   0.000000000000   0.000000000000
				   0.000000000000   0.000000000000   0.000000000000
				   0.127595026010   0.148896800642   0.000000000000
				   0.213555091885   0.264970045909   0.000000000000
				   0.292667074313   0.353981531681   0.000000000000
				   0.364467501860   0.420800638415   0.000000000000
				   0.429205452998   0.470028434697   0.000000000000
				   0.487155760913   0.505328033778   0.000000000000
				   0.538160424069   0.530172867581   0.000000000000
				   0.581887427281   0.546344664630   0.000000000000
				   0.616403158754   0.554398374460   0.000000000000
				   0.640041431794   0.554656453239   0.000000000000
				   0.650707735440   0.546903901784   0.000000000000
				   0.647504922292   0.530896384326   0.000000000000
				   0.629435758410   0.506803263063   0.000000000000
				   0.594362374452   0.474371910231   0.000000000000
				   0.541731548609   0.431850107042   0.000000000000
				   0.472149947062   0.376769291827   0.000000000000
				   0.385489703709   0.306894550928   0.000000000000
				   0.283838664732   0.221253034733   0.000000000000
				   0.173669564262   0.119280918628   0.000000000000
				   0.000000000000   0.000000000000   0.000000000000
				   0.000000000000   0.000000000000   0.000000000000
				   0.129197615700   0.158202446310   0.000000000000
				   0.216976206055   0.283254164980   0.000000000000
				   0.298706298820   0.380195420191   0.000000000000
				   0.373502871880   0.453821792144   0.000000000000
				   0.441351755681   0.508484312129   0.000000000000
				   0.502224152350   0.548213374556   0.000000000000
				   0.556140572789   0.576405478151   0.000000000000
				   0.602239127254   0.595523714450   0.000000000000
				   0.638716464785   0.606518742570   0.000000000000
				   0.663909814901   0.609297814029   0.000000000000
				   0.675709817333   0.603057437091   0.000000000000
				   0.673016675365   0.587710094300   0.000000000000
				   0.654469000128   0.564166335194   0.000000000000
				   0.618371041464   0.531674160934   0.000000000000
				   0.564058079053   0.487935370163   0.000000000000
				   0.492140777905   0.429594272796   0.000000000000
				   0.402308393960   0.353760592793   0.000000000000
				   0.296750002261   0.258087788531   0.000000000000
				   0.182185118054   0.140599471682   0.000000000000
				   0.000000000000   0.000000000000   0.000000000000
				   0.000000000000   0.000000000000   0.000000000000
				   0.127759758475   0.165988736942   0.000000000000
				   0.215790682331   0.298138610551   0.000000000000
				   0.298522575065   0.401620694429   0.000000000000
				   0.374953922128   0.480951956214   0.000000000000
				   0.444987120756   0.539999466097   0.000000000000
				   0.508479691133   0.583014869194   0.000000000000
				   0.564840312625   0.614113160881   0.000000000000
				   0.613524159747   0.635814925858   0.000000000000
				   0.652492900833   0.649589543490   0.000000000000
				   0.679757387751   0.654835664267   0.000000000000
				   0.693191266581   0.650148252536   0.000000000000
				   0.691404891541   0.636061758317   0.000000000000
				   0.673259841692   0.613673955368   0.000000000000
				   0.636954407891   0.582031480876   0.000000000000
				   0.582418708482   0.537675412169   0.000000000000
				   0.509174609145   0.477112488972   0.000000000000
				   0.417423130891   0.395891889829   0.000000000000
				   0.308850628502   0.291217795965   0.000000000000
				   0.189815716219   0.160280795529   0.000000000000
				   0.000000000000   0.000000000000   0.000000000000
				   0.000000000000   0.000000000000   0.000000000000
				   0.123306362005   0.171681128779   0.000000000000
				   0.209569273127   0.309196259245   0.000000000000
				   0.291804903341   0.417442613706   0.000000000000
				   0.368828157072   0.500657383211   0.000000000000
				   0.440141979162   0.562793231789   0.000000000000
				   0.505532290183   0.608331800653   0.000000000000
				   0.564420375318   0.641297395133   0.000000000000
				   0.615537120800   0.665174837175   0.000000000000
				   0.656869674897   0.681394390776   0.000000000000
				   0.686310501522   0.688690337103   0.000000000000
				   0.701485648570   0.685842755320   0.000000000000
				   0.701319114025   0.673622913792   0.000000000000
				   0.684606585477   0.653102804649   0.000000000000
				   0.649853987372   0.622550184772   0.000000000000
				   0.596135995951   0.578677857559   0.000000000000
				   0.523079414592   0.516730039008   0.000000000000
				   0.430224876188   0.431929232398   0.000000000000
				   0.319530534167   0.320085404810   0.000000000000
				   0.197103990399   0.177350244833   0.000000000000
				   0.000000000000   0.000000000000   0.000000000000
				   0.000000000000   0.000000000000   0.000000000000
				   0.115975621473   0.174762079320   0.000000000000
				   0.198625865992   0.315401080225   0.000000000000
				   0.278908992520   0.426230435968   0.000000000000
				   0.355371944963   0.511342433966   0.000000000000
				   0.427155957169   0.574885104508   0.000000000000
				   0.493959774229   0.621464326353   0.000000000000
				   0.554581864381   0.655675824318   0.000000000000
				   0.607432261701   0.681197610463   0.000000000000
				   0.650622756203   0.699273236023   0.000000000000
				   0.682138279317   0.708348851345   0.000000000000
				   0.699766940916   0.707439354276   0.000000000000
				   0.702183725812   0.697742207593   0.000000000000
				   0.688273341004   0.679497862491   0.000000000000
				   0.656061278262   0.651139631283   0.000000000000
				   0.604593995028   0.608659796471   0.000000000000
				   0.532810576982   0.547056583439   0.000000000000
				   0.440286514016   0.460580229407   0.000000000000
				   0.328473462544   0.344058104566   0.000000000000
				   0.203553875510   0.191994742331   0.000000000000
				   0.000000000000   0.000000000000   0.000000000000
				   0.000000000000   0.000000000000   0.000000000000
				   0.105550390012   0.175188840779   0.000000000000
				   0.183297754450   0.315641596223   0.000000000000
				   0.260300617105   0.426457646261   0.000000000000
				   0.335083441356   0.511497828001   0.000000000000
				   0.406586416967   0.574796389281   0.000000000000
				   0.473783358817   0.621446962907   0.000000000000
				   0.535365152187   0.656043444163   0.000000000000
				   0.589344319764   0.682460657201   0.000000000000
				   0.634347372152   0.701600465987   0.000000000000
				   0.668395878769   0.712134711397   0.000000000000
				   0.689025749284   0.713583912088   0.000000000000
				   0.694969325665   0.706651364106   0.000000000000
				   0.684320236869   0.691467225232   0.000000000000
				   0.655851407294   0.665903839463   0.000000000000
				   0.607452423471   0.626512588065   0.000000000000
				   0.538306438800   0.567018297672   0.000000000000
				   0.447399345331   0.481066855548   0.000000000000
				   0.335757000144   0.362282114573   0.000000000000
				   0.208945074759   0.204030212418   0.000000000000
				   0.000000000000   0.000000000000   0.000000000000
				   0.000000000000   0.000000000000   0.000000000000
				   0.092608672365   0.172052332422   0.000000000000
				   0.163549262543   0.309729796703   0.000000000000
				   0.236261806527   0.417703676406   0.000000000000
				   0.308465860103   0.500219977156   0.000000000000
				   0.378598292084   0.561736457002   0.000000000000
				   0.445453581772   0.607192387526   0.000000000000
				   0.507440872184   0.641152354017   0.000000000000
				   0.562594501991   0.667324647236   0.000000000000
				   0.609529741979   0.686892153434   0.000000000000
				   0.646213078177   0.698733723412   0.000000000000
				   0.669989210706   0.702556776099   0.000000000000
				   0.679523262102   0.698574929096   0.000000000000
				   0.672979472016   0.686691053512   0.000000000000
				   0.648737362558   0.665350590654   0.000000000000
				   0.604987998094   0.630036400957   0.000000000000
				   0.539722104847   0.574843545815   0.000000000000
				   0.451602352803   0.492311042992   0.000000000000
				   0.341195921276   0.374411818294   0.000000000000
				   0.213723789080   0.212742416020   0.000000000000
				   0.000000000000   0.000000000000   0.000000000000
				   0.000000000000   0.000000000000   0.000000000000
				   0.076907139316   0.165169732358   0.000000000000
				   0.139768903746   0.296284778889   0.000000000000
				   0.206941455131   0.398206246177   0.000000000000
				   0.275179146200   0.476009565413   0.000000000000
				   0.343212067725   0.533637477937   0.000000000000
				   0.409280051036   0.576360535063   0.000000000000
				   0.471115308032   0.608718319767   0.000000000000
				   0.526958702441   0.633914459260   0.000000000000
				   0.575586180676   0.653238703620   0.000000000000
				   0.614280623837   0.666417855483   0.000000000000
				   0.641026047536   0.672540951623   0.000000000000
				   0.654236682851   0.671773450207   0.000000000000
				   0.652323754437   0.663883405479   0.000000000000
				   0.633570988682   0.647351767206   0.000000000000
				   0.595344735111   0.617980052769   0.000000000000
				   0.535802261346   0.569036877611   0.000000000000
				   0.452170796699   0.492877173857   0.000000000000
				   0.344676256268   0.379304660865   0.000000000000
				   0.217223351474   0.218443101534   0.000000000000
				   0.000000000000   0.000000000000   0.000000000000
				   0.000000000000   0.000000000000   0.000000000000
				   0.058313982583   0.154472038887   0.000000000000
				   0.111853596591   0.274935156800   0.000000000000
				   0.171835450191   0.367753673941   0.000000000000
				   0.235517526400   0.437922183022   0.000000000000
				   0.300151376187   0.490221321731   0.000000000000
				   0.364474498615   0.528755303359   0.000000000000
				   0.425235705250   0.558157197657   0.000000000000
				   0.480636590539   0.581524740392   0.000000000000
				   0.529504297603   0.600474813021   0.000000000000
				   0.569517994136   0.614308171344   0.000000000000
				   0.598523663935   0.622377936816   0.000000000000
				   0.615415020816   0.624491603579   0.000000000000
				   0.618316053905   0.620769106032   0.000000000000
				   0.605701570857   0.609684865301   0.000000000000
				   0.574850317474   0.587195802170   0.000000000000
				   0.522731677167   0.547105040627   0.000000000000
				   0.446494912956   0.480253430167   0.000000000000
				   0.344159716586   0.375568480722   0.000000000000
				   0.219078479876   0.219890432913   0.000000000000
				   0.000000000000   0.000000000000   0.000000000000
				   0.000000000000   0.000000000000   0.000000000000
				   0.037425739196   0.139847618303   0.000000000000
				   0.080007052729   0.246260660824   0.000000000000
				   0.131871020750   0.326562301011   0.000000000000
				   0.189602876111   0.386711061307   0.000000000000
				   0.249842244591   0.431431568125   0.000000000000
				   0.310139991214   0.464836669687   0.000000000000
				   0.367945433441   0.490096342377   0.000000000000
				   0.420726522706   0.510889702037   0.000000000000
				   0.468108703383   0.528262823248   0.000000000000
				   0.507479504184   0.542061088226   0.000000000000
				   0.537474530427   0.551234394905   0.000000000000
				   0.557139613530   0.555704236012   0.000000000000
				   0.564660821968   0.555809565713   0.000000000000
				   0.558820752397   0.550085007121   0.000000000000
				   0.536805680334   0.535108687606   0.000000000000
				   0.495077563324   0.505098238909   0.000000000000
				   0.429622537253   0.451183461666   0.000000000000
				   0.336789449836   0.360392109439   0.000000000000
				   0.217218627341   0.216449243487   0.000000000000
				   0.000000000000   0.000000000000   0.000000000000
				   0.000000000000   0.000000000000   0.000000000000
				   0.015014615952   0.121622247270   0.000000000000
				   0.046458082658   0.209505562269   0.000000000000
				   0.089277934661   0.274000681523   0.000000000000
				   0.139143756561   0.321930078096   0.000000000000
				   0.192476459263   0.357432353642   0.000000000000
				   0.246259046528   0.383883718902   0.000000000000
				   0.297414956831   0.404590804672   0.000000000000
				   0.344765939208   0.421786310008   0.000000000000
				   0.387212398397   0.437002963447   0.000000000000
				   0.423512132529   0.449460909226   0.000000000000
				   0.452322247987   0.458771397997   0.000000000000
				   0.472868303013   0.464777434031   0.000000000000
				   0.484232407526   0.467450646073   0.000000000000
				   0.484823657009   0.466304841641   0.000000000000
				   0.472435303994   0.458488150854   0.000000000000
				   0.443474105153   0.439464750437   0.000000000000
				   0.393549564333   0.400909742761   0.000000000000
				   0.316332999160   0.329760955601   0.000000000000
				   0.208459871762   0.205713624694   0.000000000000
				   0.000000000000   0.000000000000   0.000000000000
				   0.000000000000   0.000000000000   0.000000000000
				   -0.006073298617   0.099332834051   0.000000000000
				   0.015043444116   0.164446778515   0.000000000000
				   0.047950933521   0.210296937062   0.000000000000
				   0.087449736924   0.244162467273   0.000000000000
				   0.130089749749   0.269313732442   0.000000000000
				   0.172656650811   0.288515530709   0.000000000000
				   0.213184706030   0.303596925480   0.000000000000
				   0.250522247268   0.316623300238   0.000000000000
				   0.284235196502   0.328430517435   0.000000000000
				   0.313527681780   0.338578471405   0.000000000000
				   0.337858435767   0.346629823713   0.000000000000
				   0.356386751709   0.352668419583   0.000000000000
				   0.368692478612   0.356634579892   0.000000000000
				   0.373841149682   0.358262503916   0.000000000000
				   0.370208686774   0.355810092210   0.000000000000
				   0.355295654586   0.346182113857   0.000000000000
				   0.324781986879   0.323491492269   0.000000000000
				   0.271820471645   0.276534989535   0.000000000000
				   0.186252964238   0.182978109929   0.000000000000
				   0.000000000000   0.000000000000   0.000000000000
				   0.000000000000   0.000000000000   0.000000000000
				   -0.018646853773   0.075394654855   0.000000000000
				   -0.006065593345   0.115208924348   0.000000000000
				   0.014672543379   0.141673984889   0.000000000000
				   0.039241326400   0.161124887526   0.000000000000
				   0.064942265292   0.175997654289   0.000000000000
				   0.090557856109   0.187197063472   0.000000000000
				   0.114399274803   0.196370177768   0.000000000000
				   0.136199778243   0.204355449821   0.000000000000
				   0.156219634174   0.211328422889   0.000000000000
				   0.173672267798   0.217639133173   0.000000000000
				   0.188612592848   0.222873881343   0.000000000000
				   0.200870654767   0.226805424027   0.000000000000
				   0.209813839778   0.229829088534   0.000000000000
				   0.215625328587   0.231417734405   0.000000000000
				   0.217244553848   0.231077118060   0.000000000000
				   0.213862381803   0.226946776238   0.000000000000
				   0.203256111136   0.215700722644   0.000000000000
				   0.180562191146   0.190999248884   0.000000000000
				   0.133561575183   0.135857883472   0.000000000000
				   0.000000000000   0.000000000000   0.000000000000
				   0.000000000000   0.000000000000   0.000000000000
				   0.000000000000   0.000000000000   0.000000000000
				   0.000000000000   0.000000000000   0.000000000000
				   0.000000000000   0.000000000000   0.000000000000
				   0.000000000000   0.000000000000   0.000000000000
				   0.000000000000   0.000000000000   0.000000000000
				   0.000000000000   0.000000000000   0.000000000000
				   0.000000000000   0.000000000000   0.000000000000
				   0.000000000000   0.000000000000   0.000000000000
				   0.000000000000   0.000000000000   0.000000000000
				   0.000000000000   0.000000000000   0.000000000000
				   0.000000000000   0.000000000000   0.000000000000
				   0.000000000000   0.000000000000   0.000000000000
				   0.000000000000   0.000000000000   0.000000000000
				   0.000000000000   0.000000000000   0.000000000000
				   0.000000000000   0.000000000000   0.000000000000
				   0.000000000000   0.000000000000   0.000000000000
				   0.000000000000   0.000000000000   0.000000000000
				   0.000000000000   0.000000000000   0.000000000000
				   0.000000000000   0.000000000000   0.000000000000
				   0.000000000000   0.000000000000   0.000000000000
				</DataArray>
				<DataArray type="Float32" Name="Pressure" Format="ascii">
				   0.000000000000
				   0.002500000000
				   0.010000000000
				   0.022500000000
				   0.040000000000
				   0.062500000000
				   0.090000000000
				   0.122500000000
				   0.160000000000
				   0.202500000000
				   0.250000000000
				   0.302500000000
				   0.360000000000
				   0.422500000000
				   0.490000000000
				   0.562500000000
				   0.640000000000
				   0.722500000000
				   0.810000000000
				   0.902500000000
				   1.000000000000
				   -0.002500000000
				   -1.150318498244
				   -1.478430342673
				   -1.719897788620
				   -1.895361284294
				   -2.019860530599
				   -2.103184422284
				   -2.148298973190
				   -2.154017932689
				   -2.116091285833
				   -2.032050645863
				   -1.902954877449
				   -1.728289597494
				   -1.503603067685
				   -1.224253460141
				   -0.887785009228
				   -0.496230782433
				   -0.061253923374
				   0.398213339537
				   0.973475608878
				   0.997500000000
				   -0.010000000000
				   -1.479236495209
				   -1.647829031482
				   -1.824881565714
				   -1.962594416277
				   -2.061863210596
				   -2.125949332892
				   -2.154251125728
				   -2.143397134599
				   -2.086165158058
				   -1.977196723962
				   -1.818530043206
				   -1.611424287150
				   -1.351703583376
				   -1.035205638925
				   -0.659743856152
				   -0.227477889542
				   0.250105615438
				   0.758658769603
				   1.444048217732
				   0.990000000000
				   -0.022500000000
				   -1.727403318268
				   -1.831600626980
				   -1.973759199386
				   -2.088574358998
				   -2.172420427713
				   -2.224921362675
				   -2.242778765239
				   -2.220663602118
				   -2.148465218508
				   -2.018266722408
				   -1.833247331786
				   -1.596894026123
				   -1.304202241847
				   -0.949991994777
				   -0.533040995436
				   -0.055527452195
				   0.471625284593
				   1.034728847980
				   1.806900373502
				   0.977500000000
				   -0.040000000000
				   -1.915608374219
				   -1.981098435594
				   -2.099114552748
				   -2.194516355429
				   -2.262815958092
				   -2.302272471868
				   -2.308084954533
				   -2.272960607142
				   -2.184466753067
				   -2.033137017464
				   -1.823376384045
				   -1.559776321662
				   -1.237573166826
				   -0.850745985260
				   -0.397048055636
				   0.119521742187
				   0.685695202903
				   1.287794689377
				   2.114421572500
				   0.960000000000
				   -0.062500000000
				   -2.057739360834
				   -2.095987766139
				   -2.196081265606
				   -2.274558642665
				   -2.327004386817
				   -2.352123603117
				   -2.344218607002
				   -2.294778234217
				   -2.189369183525
				   -2.018116076447
				   -1.786583942246
				   -1.500248317831
				   -1.152892756974
				   -0.739132451497
				   -0.257999943384
				   0.288266394112
				   0.882801503585
				   1.508770735763
				   2.366686816486
				   0.937500000000
				   -0.090000000000
				   -2.161203953121
				   -2.177804878299
				   -2.262770945722
				   -2.325802403471
				   -2.362662240500
				   -2.372862079276
				   -2.350301658616
				   -2.285621396963
				   -2.163893693130
				   -1.975017068479
				   -1.725136625463
				   -1.420419306954
				   -1.054474299907
				   -0.619837280833
				   -0.117964385858
				   0.446964260261
				   1.059556818579
				   1.698184884418
				   2.571342052938
				   0.910000000000
				   -0.122500000000
				   -2.226142436723
				   -2.223834541181
				   -2.294613756229
				   -2.342532046977
				   -2.363728872509
				   -2.358323630801
				   -2.320444959562
				   -2.240217887803
				   -2.103320357467
				   -1.900105160504
				   -1.636187565640
				   -1.317623444604
				   -0.938530507586
				   -0.491491026639
				   0.023668096460
				   0.599500571762
				   1.219474600279
				   1.862165019588
				   2.739892137884
				   0.877500000000
				   -0.160000000000
				   -2.248413020365
				   -2.228981831667
				   -2.285114356594
				   -2.317234022661
				   -2.321821990903
				   -2.299791088616
				   -2.245703996213
				   -2.150712721320
				   -2.000695269033
				   -1.786576643157
				   -1.513408078274
				   -1.186417798864
				   -0.799555468919
				   -0.346466643521
				   0.172760531466
				   0.751691458864
				   1.370738068528
				   2.008846997098
				   2.883871423838
				   0.840000000000
				   -0.202500000000
				   -2.221430813092
				   -2.184495065106
				   -2.223591594128
				   -2.237306690363
				   -2.223162875332
				   -2.183280122853
				   -2.113039808619
				   -2.004458607184
				   -1.844525388996
				   -1.623180414847
				   -1.345249496455
				   -1.015698128614
				   -0.627840474744
				   -0.175576799086
				   0.339917121584
				   0.912423300531
				   1.522451436682
				   2.147927443630
				   3.013248222715
				   0.797500000000
				   -0.250000000000
				   -2.140930537278
				   -2.083934561624
				   -2.101230704647
				   -2.093114411375
				   -2.057861077710
				   -1.999271155379