<VTKFile type="UnstructuredGrid" version="0.1" byte_order="BigEndian">
	<UnstructuredGrid>
		<Piece NumberOfPoints="1681" NumberOfCells="3200">
			<PointData Scalars="scalars" Vectors = "Velocity">
				<DataArray type="Float32" Name="Velocity" NumberOfComponents="3" Format="ascii">
				   0.000000000000   0.000000000000   0.000000000000
				   0.000000000000   0.000000000000   0.000000000000
				   0.000000000000   0.000000000000   0.000000000000
				   0.000000000000   0.000000000000   0.000000000000
				   0.000000000000   0.000000000000   0.000000000000
				   0.000000000000   0.000000000000   0.000000000000
				   0.000000000000   0.000000000000   0.000000000000
				   0.000000000000   0.000000000000   0.000000000000
				   0.000000000000   0.000000000000   0.000000000000
				   0.000000000000   0.000000000000   0.000000000000
				   0.000000000000   0.000000000000   0.000000000000
				   0.000000000000   0.000000000000   0.000000000000
				   0.000000000000   0.000000000000   0.000000000000
				   0.000000000000   0.000000000000   0.000000000000
				   0.000000000000   0.000000000000   0.000000000000
				   0.000000000000   0.000000000000   0.000000000000
				   0.000000000000   0.000000000000   0.000000000000
				   0.000000000000   0.000000000000   0.000000000000
				   0.000000000000   0.000000000000   0.000000000000
				   0.000000000000   0.000000000000   0.000000000000
				   0.000000000000   0.000000000000   0.000000000000
				   0.000000000000   0.000000000000   0.000000000000
				   0.000000000000   0.000000000000   0.000000000000
				   0.000000000000   0.000000000000   0.000000000000
				   0.000000000000   0.000000000000   0.000000000000
				   0.000000000000   0.000000000000   0.000000000000
				   0.000000000000   0.000000000000   0.000000000000
				   0.000000000000   0.000000000000   0.000000000000
				   0.000000000000   0.000000000000   0.000000000000
				   0.000000000000   0.000000000000   0.000000000000
				   0.000000000000   0.000000000000   0.000000000000
				   0.000000000000   0.000000000000   0.000000000000
				   0.000000000000   0.000000000000   0.000000000000
				   0.000000000000   0.000000000000   0.000000000000
				   0.000000000000   0.000000000000   0.000000000000
				   0.000000000000   0.000000000000   0.000000000000
				   0.000000000000   0.000000000000   0.000000000000
				   0.000000000000   0.000000000000   0.000000000000
				   0.000000000000   0.000000000000   0.000000000000
				   0.000000000000   0.000000000000   0.000000000000
				   0.000000000000   0.000000000000   0.000000000000
				   0.000000000000   0.000000000000   0.000000000000
				   0.000014531405   -0.000014589493   0.000000000000
				   0.000045440966   -0.000017601823   0.000000000000
				   0.000068927793   -0.000009305256   0.000000000000
				   0.000062585098   0.000006624984   0.000000000000
				   0.000007597773   0.000026940656   0.000000000000
				   -0.000112851276   0.000050080313   0.000000000000
				   -0.000309257706   0.000073434237   0.000000000000
				   -0.000592721944   0.000096537975   0.000000000000
				   -0.000968027187   0.000117927002   0.000000000000
				   -0.001439587541   0.000137056626   0.000000000000
				   -0.002004440991   0.000152950115   0.000000000000
				   -0.002659623576   0.000165241646   0.000000000000
				   -0.003393671489   0.000173405952   0.000000000000
				   -0.004199690106   0.000177025168   0.000000000000
				   -0.005053014347   0.000174834511   0.000000000000
				   -0.005922707725   0.000165818035   0.000000000000
				   -0.006767270230   0.000147771438   0.000000000000
				   -0.007520177888   0.000118308045   0.000000000000
				   -0.008093412110   0.000074646624   0.000000000000
				   -0.008356193835   0.000008517190   0.000000000000
				   -0.008193622832   -0.000065627170   0.000000000000
				   -0.007648580943   -0.000125947153   0.000000000000
				   -0.006827133725   -0.000173226272   0.000000000000
				   -0.005835358217   -0.000204646257   0.000000000000
				   -0.004778357529   -0.000219202227   0.000000000000
				   -0.003737998935   -0.000218848080   0.000000000000
				   -0.002780031237   -0.000205919581   0.000000000000
				   -0.001946864075   -0.000183726254   0.000000000000
				   -0.001258877397   -0.000156132423   0.000000000000
				   -0.000714971620   -0.000124749623   0.000000000000
				   -0.000315638569   -0.000093267613   0.000000000000
				   -0.000041888362   -0.000062759783   0.000000000000
				   0.000123714597   -0.000034763421   0.000000000000
				   0.000201634283   -0.000010377676   0.000000000000
				   0.000213005496   0.000009026810   0.000000000000
				   0.000179737957   0.000022596869   0.000000000000
				   0.000122393318   0.000029498397   0.000000000000
				   0.000061480191   0.000027907130   0.000000000000
				   0.000016358529   0.000016345271   0.000000000000
				   0.000000000000   0.000000000000   0.000000000000
				   0.000000000000   0.000000000000   0.000000000000
				   0.000017658835   -0.000045534544   0.000000000000
				   0.000045637373   -0.000045520641   0.000000000000
				   0.000049100445   -0.000008152663   0.000000000000
				   -0.000006906219   0.000055828395   0.000000000000
				   -0.000154015163   0.000135991054   0.000000000000
				   -0.000423945959   0.000225767332   0.000000000000
				   -0.000836841393   0.000316392718   0.000000000000
				   -0.001416020817   0.000404316651   0.000000000000
				   -0.002172428771   0.000484509958   0.000000000000
				   -0.003116571088   0.000554315791   0.000000000000
				   -0.004243911498   0.000610512896   0.000000000000
				   -0.005549864269   0.000651534208   0.000000000000
				   -0.007011779282   0.000675399499   0.000000000000
				   -0.008616076735   0.000680539100   0.000000000000
				   -0.010312874727   0.000663410128   0.000000000000
				   -0.012038590070   0.000620125032   0.000000000000
				   -0.013709240708   0.000543948526   0.000000000000
				   -0.015191066846   0.000427434182   0.000000000000
				   -0.016308476102   0.000261698433   0.000000000000
				   -0.016809407088   0.000031063590   0.000000000000
				   -0.016475139997   -0.000225479913   0.000000000000
				   -0.015393355318   -0.000448468904   0.000000000000
				   -0.013773175418   -0.000627989696   0.000000000000
				   -0.011823136214   -0.000752908430   0.000000000000
				   -0.009747935652   -0.000818483722   0.000000000000
				   -0.007705462318   -0.000829025016   0.000000000000
				   -0.005822058968   -0.000792099003   0.000000000000
				   -0.004179136737   -0.000718644123   0.000000000000
				   -0.002816115919   -0.000620920569   0.000000000000
				   -0.001729454186   -0.000506991096   0.000000000000
				   -0.000920613945   -0.000388751477   0.000000000000
				   -0.000352757537   -0.000271956923   0.000000000000
				   0.000008266169   -0.000162866127   0.000000000000
				   0.000201830319   -0.000066576086   0.000000000000
				   0.000268088715   0.000011496523   0.000000000000
				   0.000248085142   0.000067262116   0.000000000000
				   0.000179162426   0.000096957986   0.000000000000
				   0.000095720280   0.000095648085   0.000000000000
				   0.000027882688   0.000061456580   0.000000000000
				   0.000000000000   0.000000000000   0.000000000000
				   0.000000000000   0.000000000000   0.000000000000
				   0.000009464932   -0.000069250680   0.000000000000
				   0.000008256797   -0.000048965624   0.000000000000
				   -0.000043407968   0.000043229017   0.000000000000
				   -0.000187660077   0.000188644725   0.000000000000
				   -0.000464377531   0.000368332004   0.000000000000
				   -0.000917598730   0.000569202622   0.000000000000
				   -0.001574817990   0.000773264774   0.000000000000
				   -0.002471480485   0.000971657705   0.000000000000
				   -0.003624958442   0.001153154034   0.000000000000
				   -0.005052856659   0.001310870522   0.000000000000
				   -0.006750079472   0.001437338198   0.000000000000
				   -0.008711481762   0.001528227578   0.000000000000
				   -0.010903655257   0.001578597651   0.000000000000
				   -0.013306491047   0.001584147586   0.000000000000
				   -0.015844319411   0.001537291045   0.000000000000
				   -0.018419607535   0.001428812838   0.000000000000
				   -0.020904728308   0.001244333984   0.000000000000
				   -0.023097851429   0.000967845193   0.000000000000
				   -0.024736839288   0.000580805915   0.000000000000
				   -0.025455862468   0.000062277458   0.000000000000
				   -0.024941517523   -0.000509321951   0.000000000000
				   -0.023328552290   -0.001017084852   0.000000000000
				   -0.020926830381   -0.001428121380   0.000000000000
				   -0.018043681691   -0.001717170752   0.000000000000
				   -0.014978427387   -0.001873628985   0.000000000000
				   -0.011960050345   -0.001905646719   0.000000000000
				   -0.009171259573   -0.001829997097   0.000000000000
				   -0.006729812176   -0.001670707780   0.000000000000
				   -0.004693008999   -0.001454227667   0.000000000000
				   -0.003054381996   -0.001200400665   0.000000000000
				   -0.001817048891   -0.000934728615   0.000000000000
				   -0.000927436934   -0.000671602487   0.000000000000
				   -0.000336028037   -0.000425391376   0.000000000000
				   0.000013559943   -0.000207931147   0.000000000000
				   0.000177868209   -0.000030819577   0.000000000000
				   0.000214014854   0.000097503228   0.000000000000
				   0.000172752479   0.000170216516   0.000000000000
				   0.000098435929   0.000179666674   0.000000000000
				   0.000029744258   0.000122723878   0.000000000000
				   0.000000000000   0.000000000000   0.000000000000
				   0.000000000000   0.000000000000   0.000000000000
				   -0.000006673369   -0.000062867227   0.000000000000
				   -0.000057188456   0.000008079892   0.000000000000
				   -0.000192796993   0.000188631397   0.000000000000
				   -0.000459059961   0.000452776088   0.000000000000
				   -0.000900585203   0.000772970264   0.000000000000
				   -0.001571219917   0.001129471758   0.000000000000
				   -0.002502880378   0.001492872216   0.000000000000
				   -0.003742081209   0.001847519803   0.000000000000
				   -0.005311828920   0.002173527255   0.000000000000
				   -0.007237017994   0.002457602469   0.000000000000
				   -0.009512394130   0.002685667050   0.000000000000
				   -0.012132973114   0.002848657483   0.000000000000
				   -0.015055130992   0.002936641923   0.000000000000
				   -0.018252445844   0.002940533661   0.000000000000
				   -0.021623386665   0.002846276597   0.000000000000
				   -0.025035964792   0.002636537275   0.000000000000
				   -0.028318555777   0.002285766228   0.000000000000
				   -0.031201723651   0.001765740859   0.000000000000
				   -0.033339461809   0.001045095014   0.000000000000
				   -0.034259552990   0.000100128599   0.000000000000
				   -0.033562235866   -0.000934058452   0.000000000000
				   -0.031430607437   -0.001860930134   0.000000000000
				   -0.028271839257   -0.002612244487   0.000000000000
				   -0.024486916889   -0.003142795009   0.000000000000
				   -0.020464008860   -0.003434396537   0.000000000000
				   -0.016498141904   -0.003501066553   0.000000000000
				   -0.012824404345   -0.003373126260   0.000000000000
				   -0.009594544561   -0.003093509173   0.000000000000
				   -0.006882947023   -0.002709163293   0.000000000000
				   -0.004680351078   -0.002257117469   0.000000000000
				   -0.002992698892   -0.001782258524   0.000000000000
				   -0.001751209621   -0.001311601988   0.000000000000
				   -0.000893003337   -0.000871027578   0.000000000000
				   -0.000347071551   -0.000481568667   0.000000000000
				   -0.000043435229   -0.000162724098   0.000000000000
				   0.000088240508   0.000072279331   0.000000000000
				   0.000109728126   0.000214042438   0.000000000000
				   0.000073160901   0.000252321012   0.000000000000
				   0.000023900147   0.000182123585   0.000000000000
				   0.000000000000   0.000000000000   0.000000000000
				   0.000000000000   0.000000000000   0.000000000000
				   -0.000027928283   -0.000006053970   0.000000000000
				   -0.000142017730   0.000160343027   0.000000000000
				   -0.000384032653   0.000472588559   0.000000000000
				   -0.000800559957   0.000898905814   0.000000000000
				   -0.001438316012   0.001403833798   0.000000000000
				   -0.002358737969   0.001961767345   0.000000000000
				   -0.003595197949   0.002530454817   0.000000000000
				   -0.005203640232   0.003086726351   0.000000000000
				   -0.007211211706   0.003599947096   0.000000000000
				   -0.009649464511   0.004048441025   0.000000000000
				   -0.012512722725   0.004409082180   0.000000000000
				   -0.015796481513   0.004665771191   0.000000000000
				   -0.019447246309   0.004801245712   0.000000000000
				   -0.023432678773   0.004799075278   0.000000000000
				   -0.027625658135   0.004635849475   0.000000000000
				   -0.031860061376   0.004282972249   0.000000000000
				   -0.035920785415   0.003699965690   0.000000000000
				   -0.039472592824   0.002842878848   0.000000000000
				   -0.042089490793   0.001665050572   0.000000000000
				   -0.043199900724   0.000142725749   0.000000000000
				   -0.042324404343   -0.001513725892   0.000000000000
				   -0.039693987418   -0.003004332532   0.000000000000
				   -0.035808526365   -0.004213189224   0.000000000000
				   -0.031156542156   -0.005069387950   0.000000000000
				   -0.026208975587   -0.005545625942   0.000000000000
				   -0.021322207221   -0.005664105370   0.000000000000
				   -0.016780364392   -0.005473166289   0.000000000000
				   -0.012767580620   -0.005040647759   0.000000000000
				   -0.009375215339   -0.004440529458   0.000000000000
				   -0.006591984744   -0.003732520108   0.000000000000
				   -0.004428410319   -0.002986844255   0.000000000000
				   -0.002802468626   -0.002247098827   0.000000000000
				   -0.001640260327   -0.001553928668   0.000000000000
				   -0.000858718800   -0.000939737135   0.000000000000
				   -0.000377197467   -0.000433276593   0.000000000000
				   -0.000114470860   -0.000052708123   0.000000000000
				   0.000000649202   0.000190604112   0.000000000000
				   0.000026310788   0.000284117114   0.000000000000
				   0.000012637519   0.000221961121   0.000000000000
				   0.000000000000   0.000000000000   0.000000000000
				   0.000000000000   0.000000000000   0.000000000000
				   -0.000053412498   0.000121323475   0.000000000000
				   -0.000242009025   0.000446065335   0.000000000000
				   -0.000609172349   0.000948669914   0.000000000000
				   -0.001201522003   0.001593018700   0.000000000000
				   -0.002066123209   0.002336631680   0.000000000000
				   -0.003270437252   0.003149327128   0.000000000000
				   -0.004846471643   0.003974900642   0.000000000000
				   -0.006857969229   0.004782468602   0.000000000000
				   -0.009334241815   0.005528883971   0.000000000000
				   -0.012312368191   0.006182329400   0.000000000000
				   -0.015785402090   0.006708010689   0.000000000000
				   -0.019749078466   0.007080377337   0.000000000000
				   -0.024140093129   0.007271922418   0.000000000000
				   -0.028920456529   0.007255864818   0.000000000000
				   -0.033937737768   0.006995868471   0.000000000000
				   -0.038992090129   0.006448366287   0.000000000000
				   -0.043825716072   0.005553654194   0.000000000000
				   -0.048039429532   0.004248352988   0.000000000000
				   -0.051130688984   0.002468300480   0.000000000000
				   -0.052433302827   0.000192517512   0.000000000000
				   -0.051391518273   -0.002272194651   0.000000000000
				   -0.048282212573   -0.004495025045   0.000000000000
				   -0.043693420460   -0.006299128898   0.000000000000
				   -0.038195886534   -0.007581482121   0.000000000000
				   -0.032338721520   -0.008303811557   0.000000000000
				   -0.026536714889   -0.008498986368   0.000000000000
				   -0.021121585072   -0.008238173741   0.000000000000
				   -0.016309882429   -0.007620663708   0.000000000000
				   -0.012211144636   -0.006754695754   0.000000000000
				   -0.008813514809   -0.005728725228   0.000000000000
				   -0.006134661145   -0.004644934361   0.000000000000
				   -0.004081407889   -0.003567751736   0.000000000000
				   -0.002571217291   -0.002556082141   0.000000000000
				   -0.001511239890   -0.001655907922   0.000000000000
				   -0.000812431606   -0.000906677363   0.000000000000
				   -0.000384269820   -0.000331641326   0.000000000000
				   -0.000147158548   0.000056608946   0.000000000000
				   -0.000038170769   0.000243982610   0.000000000000
				   -0.000003333334   0.000225481429   0.000000000000
				   0.000000000000   0.000000000000   0.000000000000
				   0.000000000000   0.000000000000   0.000000000000
				   -0.000081031094   0.000335289739   0.000000000000
				   -0.000350464432   0.000895947317   0.000000000000
				   -0.000854985550   0.001659543214   0.000000000000
				   -0.001641065924   0.002586461239   0.000000000000
				   -0.002755160178   0.003628046693   0.000000000000
				   -0.004269570242   0.004751166980   0.000000000000
				   -0.006212688739   0.005885014339   0.000000000000
				   -0.008654266491   0.006991478662   0.000000000000
				   -0.011623643905   0.008013836689   0.000000000000
				   -0.015161866177   0.008908859604   0.000000000000
				   -0.019259325288   0.009628037468   0.000000000000
				   -0.023911470464   0.010134004195   0.000000000000
				   -0.029045020278   0.010386235307   0.000000000000
				   -0.034616820010   0.010344375176   0.000000000000
				   -0.040450057239   0.009955464616   0.000000000000
				   -0.046312815999   0.009157131450   0.000000000000
				   -0.051907021357   0.007866139207   0.000000000000
				   -0.056773397182   0.005996310342   0.000000000000
				   -0.060338085704   0.003464212329   0.000000000000
				   -0.061846095963   0.000254302665   0.000000000000
				   -0.060666699764   -0.003209380908   0.000000000000
				   -0.057116238336   -0.006338127635   0.000000000000
				   -0.051863573424   -0.008881460877   0.000000000000
				   -0.045554661937   -0.010697857804   0.000000000000
				   -0.038811505164   -0.011735847946   0.000000000000
				   -0.032104687886   -0.012040968863   0.000000000000
				   -0.025812877744   -0.011711453252   0.000000000000
				   -0.020186170015   -0.010884129851   0.000000000000
				   -0.015354559363   -0.009708360156   0.000000000000
				   -0.011307962860   -0.008307191745   0.000000000000
				   -0.008074489416   -0.006821163446   0.000000000000
				   -0.005552350792   -0.005339604331   0.000000000000
				   -0.003652898137   -0.003942959587   0.000000000000
				   -0.002275709601   -0.002692876144   0.000000000000
				   -0.001325268844   -0.001640865802   0.000000000000
				   -0.000702984125   -0.000815434538   0.000000000000
				   -0.000321469719   -0.000229458489   0.000000000000
				   -0.000113692761   0.000102290949   0.000000000000
				   -0.000021887830   0.000177228708   0.000000000000
				   0.000000000000   0.000000000000   0.000000000000
				   0.000000000000   0.000000000000   0.000000000000
				   -0.000111141474   0.000655819896   0.000000000000
				   -0.000466581692   0.001550191034   0.000000000000
				   -0.001118568465   0.002664817618   0.000000000000
				   -0.002114035688   0.003956337598   0.000000000000
				   -0.003498545614   0.005370141053   0.000000000000
				   -0.005348808664   0.006871626244   0.000000000000
				   -0.007687784849   0.008374519703   0.000000000000
				   -0.010589828669   0.009834274833   0.000000000000
				   -0.014082299167   0.011179687744   0.000000000000
				   -0.018208466835   0.012355311378   0.000000000000
				   -0.022954529305   0.013296900645   0.000000000000
				   -0.028314702346   0.013953155434   0.000000000000
				   -0.034205356833   0.014267578738   0.000000000000
				   -0.040578598823   0.014182762654   0.000000000000
				   -0.047234218243   0.013625002673   0.000000000000
				   -0.053910154583   0.012508729188   0.000000000000
				   -0.060270881471   0.010722367208   0.000000000000
				   -0.065801014055   0.008153150702   0.000000000000
				   -0.069860079533   0.004696100869   0.000000000000
				   -0.071608002472   0.000343141450   0.000000000000
				   -0.070335905775   -0.004341668801   0.000000000000
				   -0.066389448836   -0.008581002860   0.000000000000
				   -0.060510059080   -0.012036500928   0.000000000000
				   -0.053412597327   -0.014520321091   0.000000000000
				   -0.045788429479   -0.015964236799   0.000000000000
				   -0.038163628574   -0.016427774776   0.000000000000
				   -0.030965760833   -0.016040199461   0.000000000000
				   -0.024481981138   -0.014982211736   0.000000000000
				   -0.018866963571   -0.013451798998   0.000000000000
				   -0.014115814105   -0.011613174237   0.000000000000
				   -0.010271438100   -0.009652486604   0.000000000000
				   -0.007226070394   -0.007688680125   0.000000000000
				   -0.004887373362   -0.005827640381   0.000000000000
				   -0.003149091801   -0.004149229531   0.000000000000
				   -0.001910576353   -0.002718918462   0.000000000000
				   -0.001065610855   -0.001570911224   0.000000000000
				   -0.000518851705   -0.000717540802   0.000000000000
				   -0.000198847506   -0.000173711822   0.000000000000
				   -0.000043095818   0.000061300383   0.000000000000
				   0.000000000000   0.000000000000   0.000000000000
				   0.000000000000   0.000000000000   0.000000000000
				   -0.000142789077   0.001099956557   0.000000000000
				   -0.000587275682   0.002443064536   0.000000000000
				   -0.001393209708   0.004015218618   0.000000000000
				   -0.002608775100   0.005768043348   0.000000000000
				   -0.004278843721   0.007640399762   0.000000000000
				   -0.006484452355   0.009597484946   0.000000000000
				   -0.009241967468   0.011536420630   0.000000000000
				   -0.012629312820   0.013407198219   0.000000000000
				   -0.016670073471   0.015123679243   0.000000000000
				   -0.021408245855   0.016617700522   0.000000000000
				   -0.026824172446   0.017807922810   0.000000000000
				   -0.032909921451   0.018627339269   0.000000000000
				   -0.039571116336   0.019000867973   0.000000000000
				   -0.046755761392   0.018850729596   0.000000000000
				   -0.054241836997   0.018078289554   0.000000000000
				   -0.061739870694   0.016570394181   0.000000000000
				   -0.068880972754   0.014182146299   0.000000000000
				   -0.075098855580   0.010770096019   0.000000000000
				   -0.079691856734   0.006204753953   0.000000000000
				   -0.081738281192   0.000486077056   0.000000000000
				   -0.080443707408   -0.005659796217   0.000000000000
				   -0.076167066178   -0.011235401853   0.000000000000
				   -0.069711358113   -0.015799295824   0.000000000000
				   -0.061853141909   -0.019107895520   0.000000000000
				   -0.053350121037   -0.021070634975   0.000000000000
				   -0.044785134018   -0.021760669176   0.000000000000
				   -0.036638724793   -0.021340954410   0.000000000000
				   -0.029240901064   -0.020041747092   0.000000000000
				   -0.022777220120   -0.018117066688   0.000000000000
				   -0.017252732095   -0.015779191498   0.000000000000
				   -0.012730606963   -0.013267609288   0.000000000000
				   -0.009100079038   -0.010736198089   0.000000000000
				   -0.006267520144   -0.008320745441   0.000000000000
				   -0.004122297775   -0.006122492222   0.000000000000
				   -0.002559409228   -0.004223362004   0.000000000000
				   -0.001464813507   -0.002664276877   0.000000000000
				   -0.000734299499   -0.001456586275   0.000000000000
				   -0.000290982022   -0.000615568411   0.000000000000
				   -0.000066079978   -0.000137238774   0.000000000000
				   0.000000000000   0.000000000000   0.000000000000
				   0.000000000000   0.000000000000   0.000000000000
				   -0.000176202693   0.001689048461   0.000000000000
				   -0.000712123637   0.003617454734   0.000000000000
				   -0.001676751812   0.005774868037   0.000000000000
				   -0.003120477107   0.008105619943   0.000000000000
				   -0.005087920215   0.010540649979   0.000000000000
				   -0.007664749034   0.013045793006   0.000000000000
				   -0.010860121198   0.015499729145   0.000000000000
				   -0.014754865659   0.017848058363   0.000000000000
				   -0.019367559793   0.019989137485   0.000000000000
				   -0.024741623833   0.021842024451   0.000000000000
				   -0.030850182867   0.023307202855   0.000000000000
				   -0.037682370203   0.024300612085   0.000000000000
				   -0.045132761914   0.024726379368   0.000000000000
				   -0.053146353695   0.024483052932   0.000000000000
				   -0.061481236714   0.023443044368   0.000000000000
				   -0.069824049927   0.021461000704   0.000000000000
				   -0.077777620156   0.018353188818   0.000000000000
				   -0.084730707468   0.013940598221   0.000000000000
				   -0.089926177079   0.008064677844   0.000000000000
				   -0.092363007836   0.000731561095   0.000000000000
				   -0.091148309569   -0.007149085261   0.000000000000
				   -0.086631497096   -0.014325626390   0.000000000000
				   -0.079663149087   -0.020235745111   0.000000000000
				   -0.071073600062   -0.024567514866   0.000000000000
				   -0.061684760603   -0.027198950653   0.000000000000
				   -0.052139674816   -0.028213817515   0.000000000000
				   -0.042978838429   -0.027809553626   0.000000000000
				   -0.034583968476   -0.026270963618   0.000000000000
				   -0.027180431623   -0.023915848249   0.000000000000
				   -0.020789739004   -0.021012409487   0.000000000000
				   -0.015502439920   -0.017862541544   0.000000000000
				   -0.011208181394   -0.014661748329   0.000000000000
				   -0.007814569665   -0.011581567354   0.000000000000
				   -0.005207701792   -0.008748991231   0.000000000000
				   -0.003278474479   -0.006266173123   0.000000000000
				   -0.001904012826   -0.004182732039   0.000000000000
				   -0.000969559816   -0.002509337800   0.000000000000
				   -0.000391056408   -0.001262822276   0.000000000000
				   -0.000091345585   -0.000436911727   0.000000000000
				   0.000000000000   0.000000000000   0.000000000000
				   0.000000000000   0.000000000000   0.000000000000
				   -0.000210551507   0.002440522081   0.000000000000
				   -0.000838507125   0.005108061270   0.000000000000
				   -0.001963429717   0.007995298027   0.000000000000
				   -0.003638689262   0.011036321070   0.000000000000
				   -0.005909137458   0.014152036522   0.000000000000
				   -0.008865492249   0.017309351655   0.000000000000
				   -0.012509529968   0.020366130908   0.000000000000
				   -0.016924771499   0.023264487075   0.000000000000
				   -0.022124032992   0.025886853643   0.000000000000
				   -0.028149373936   0.028139696311   0.000000000000
				   -0.034965868746   0.029904766366   0.000000000000
				   -0.042559266875   0.031080324954   0.000000000000
				   -0.050813484762   0.031547999905   0.000000000000
				   -0.059671968339   0.031180160487   0.000000000000
				   -0.068875848664   0.029816660213   0.000000000000
				   -0.078092543756   0.027275525625   0.000000000000
				   -0.086903098203   0.023328579748   0.000000000000
				   -0.094658807739   0.017755467457   0.000000000000
				   -0.100553952686   0.010361933417   0.000000000000
				   -0.103510744283   0.001154628249   0.000000000000
				   -0.102519684983   -0.008755869981   0.000000000000
				   -0.097889560929   -0.017830177939   0.000000000000
				   -0.090500065270   -0.025364887137   0.000000000000
				   -0.081225141741   -0.030963170465   0.000000000000
				   -0.070948302198   -0.034457638005   0.000000000000
				   -0.060377494667   -0.035935279715   0.000000000000
				   -0.050122531805   -0.035625350319   0.000000000000
				   -0.040628684675   -0.033870262209   0.000000000000
				   -0.032173000103   -0.031058917408   0.000000000000
				   -0.024802148746   -0.027524021087   0.000000000000
				   -0.018643159552   -0.023640223864   0.000000000000
				   -0.013590366032   -0.019653049160   0.000000000000
				   -0.009555507742   -0.015777336281   0.000000000000
				   -0.006422479381   -0.012171898332   0.000000000000
				   -0.004077959836   -0.008964542554   0.000000000000
				   -0.002388701915   -0.006216985136   0.000000000000
				   -0.001227111707   -0.003940473605   0.000000000000
				   -0.000499816850   -0.002155779352   0.000000000000
				   -0.000118849796   -0.000856287546   0.000000000000
				   0.000000000000   0.000000000000   0.000000000000
				   0.000000000000   0.000000000000   0.000000000000
				   -0.000246014179   0.003377245696   0.000000000000
				   -0.000965903502   0.006960421149   0.000000000000
				   -0.002250846455   0.010744370035   0.000000000000
				   -0.004157887924   0.014649323407   0.000000000000
				   -0.006732620084   0.018583355393   0.000000000000
				   -0.010071271464   0.022514574814   0.000000000000
				   -0.014168467452   0.026276767725   0.000000000000
				   -0.019110530004   0.029809390841   0.000000000000
				   -0.024904315687   0.032978274716   0.000000000000
				   -0.031590326372   0.035677634901   0.000000000000
				   -0.039125264196   0.037770338934   0.000000000000
				   -0.047491857652   0.039136699618   0.000000000000
				   -0.056564140893   0.039635013547   0.000000000000
				   -0.066286369307   0.039109471091   0.000000000000
				   -0.076386601005   0.037364196085   0.000000000000
				   -0.086518812315   0.034176365777   0.000000000000
				   -0.096250303326   0.029267218562   0.000000000000
				   -0.104903896261   0.022367707270   0.000000000000
				   -0.111633553647   0.013238000699   0.000000000000
				   -0.115287583813   0.001874205390   0.000000000000
				   -0.114716173312   -0.010399884498   0.000000000000
				   -0.110146998387   -0.021722987724   0.000000000000
				   -0.102464667708   -0.031226174417   0.000000000000
				   -0.092573294490   -0.038405068450   0.000000000000
				   -0.081413906191   -0.043025512269   0.000000000000
				   -0.069764864008   -0.045163908355   0.000000000000