<VTKFile type="UnstructuredGrid" version="0.1" byte_order="BigEndian">
	<UnstructuredGrid>
		<Piece NumberOfPoints="1681" NumberOfCells="3200">
			<PointData Scalars="scalars" Vectors = "Velocity">
				<DataArray type="Float32" Name="Velocity" NumberOfComponents="3" Format="ascii">
				   0.000000000000   0.000000000000   0.000000000000
				   0.000000000000   0.000000000000   0.000000000000
				   0.000000000000   0.000000000000   0.000000000000
				   0.000000000000   0.000000000000   0.000000000000
				   0.000000000000   0.000000000000   0.000000000000
				   0.000000000000   0.000000000000   0.000000000000
				   0.000000000000   0.000000000000   0.000000000000
				   0.000000000000   0.000000000000   0.000000000000
				   0.000000000000   0.000000000000   0.000000000000
				   0.000000000000   0.000000000000   0.000000000000
				   0.000000000000   0.000000000000   0.000000000000
				   0.000000000000   0.000000000000   0.000000000000
				   0.000000000000   0.000000000000   0.000000000000
				   0.000000000000   0.000000000000   0.000000000000
				   0.000000000000   0.000000000000   0.000000000000
				   0.000000000000   0.000000000000   0.000000000000
				   0.000000000000   0.000000000000   0.000000000000
				   0.000000000000   0.000000000000   0.000000000000
				   0.000000000000   0.000000000000   0.000000000000
				   0.000000000000   0.000000000000   0.000000000000
				   0.000000000000   0.000000000000   0.000000000000
				   0.000000000000   0.000000000000   0.000000000000
				   0.000000000000   0.000000000000   0.000000000000
				   0.000000000000   0.000000000000   0.000000000000
				   0.000000000000   0.000000000000   0.000000000000
				   0.000000000000   0.000000000000   0.000000000000
				   0.000000000000   0.000000000000   0.000000000000
				   0.000000000000   0.000000000000   0.000000000000
				   0.000000000000   0.000000000000   0.000000000000
				   0.000000000000   0.000000000000   0.000000000000
				   0.000000000000   0.000000000000   0.000000000000
				   0.000000000000   0.000000000000   0.000000000000
				   0.000000000000   0.000000000000   0.000000000000
				   0.000000000000   0.000000000000   0.000000000000
				   0.000000000000   0.000000000000   0.000000000000
				   0.000000000000   0.000000000000   0.000000000000
				   0.000000000000   0.000000000000   0.000000000000
				   0.000000000000   0.000000000000   0.000000000000
				   0.000000000000   0.000000000000   0.000000000000
				   0.000000000000   0.000000000000   0.000000000000
				   0.000000000000   0.000000000000   0.000000000000
				   0.000000000000   0.000000000000   0.000000000000
				   0.000028151724   -0.000028009425   0.000000000000
				   0.000102681573   -0.000042995346   0.000000000000
				   0.000187425728   -0.000038850896   0.000000000000
				   0.000246210042   -0.000020486687   0.000000000000
				   0.000247235341   0.000006339348   0.000000000000
				   0.000164349367   0.000038232645   0.000000000000
				   -0.000020988787   0.000071203251   0.000000000000
				   -0.000326689971   0.000104851545   0.000000000000
				   -0.000766392188   0.000138478581   0.000000000000
				   -0.001359748209   0.000173376124   0.000000000000
				   -0.002126686089   0.000210383087   0.000000000000
				   -0.003098813173   0.000251096843   0.000000000000
				   -0.004306098102   0.000295100968   0.000000000000
				   -0.005793893929   0.000341901060   0.000000000000
				   -0.007573639132   0.000384808462   0.000000000000
				   -0.009624187393   0.000414825338   0.000000000000
				   -0.011860936785   0.000417117235   0.000000000000
				   -0.014071135839   0.000370963927   0.000000000000
				   -0.015894729028   0.000254336432   0.000000000000
				   -0.016757082536   0.000033902886   0.000000000000
				   -0.016119604887   -0.000242074918   0.000000000000
				   -0.014078433223   -0.000468697809   0.000000000000
				   -0.011106018745   -0.000618645474   0.000000000000
				   -0.007737382709   -0.000675151215   0.000000000000
				   -0.004476309861   -0.000642707925   0.000000000000
				   -0.001666207050   -0.000545388488   0.000000000000
				   0.000500603226   -0.000411711091   0.000000000000
				   0.001982387666   -0.000268801475   0.000000000000
				   0.002841716980   -0.000136952541   0.000000000000
				   0.003196443593   -0.000021524457   0.000000000000
				   0.003165674858   0.000067307827   0.000000000000
				   0.002872318013   0.000133164950   0.000000000000
				   0.002416610307   0.000176709168   0.000000000000
				   0.001882775380   0.000199358051   0.000000000000
				   0.001341932984   0.000201597709   0.000000000000
				   0.000849098837   0.000184484822   0.000000000000
				   0.000445681546   0.000147920567   0.000000000000
				   0.000167518124   0.000092644020   0.000000000000
				   0.000027885681   0.000027989874   0.000000000000
				   0.000000000000   0.000000000000   0.000000000000
				   0.000000000000   0.000000000000   0.000000000000
				   0.000043441555   -0.000102637140   0.000000000000
				   0.000138366271   -0.000138139750   0.000000000000
				   0.000228970332   -0.000109882066   0.000000000000
				   0.000258695432   -0.000032891916   0.000000000000
				   0.000175499931   0.000074973025   0.000000000000
				   -0.000069372076   0.000201134043   0.000000000000
				   -0.000511743146   0.000332341968   0.000000000000
				   -0.001190821379   0.000465217303   0.000000000000
				   -0.002137430674   0.000597431223   0.000000000000
				   -0.003394024705   0.000732373101   0.000000000000
				   -0.005000823150   0.000872748644   0.000000000000
				   -0.007018742477   0.001022307636   0.000000000000
				   -0.009499586630   0.001178269028   0.000000000000
				   -0.012522189088   0.001334430675   0.000000000000
				   -0.016091663003   0.001467303978   0.000000000000
				   -0.020142224972   0.001542066315   0.000000000000
				   -0.024483892464   0.001506945633   0.000000000000
				   -0.028681506684   0.001295776570   0.000000000000
				   -0.032033908570   0.000841102340   0.000000000000
				   -0.033484517062   0.000079197113   0.000000000000
				   -0.032086354118   -0.000845826455   0.000000000000
				   -0.028090881358   -0.001642935519   0.000000000000
				   -0.022407296804   -0.002189142581   0.000000000000
				   -0.016020917287   -0.002422075574   0.000000000000
				   -0.009840649745   -0.002349442743   0.000000000000
				   -0.004479543724   -0.002041553225   0.000000000000
				   -0.000286953302   -0.001590470200   0.000000000000
				   0.002652232312   -0.001087067533   0.000000000000
				   0.004439846948   -0.000602079480   0.000000000000
				   0.005283018932   -0.000167292666   0.000000000000
				   0.005391772699   0.000183949287   0.000000000000
				   0.004991168441   0.000452527695   0.000000000000
				   0.004267886659   0.000637892749   0.000000000000
				   0.003380206900   0.000742190246   0.000000000000
				   0.002461414238   0.000766243881   0.000000000000
				   0.001612453986   0.000712569777   0.000000000000
				   0.000903793378   0.000583723133   0.000000000000
				   0.000390566256   0.000390189935   0.000000000000
				   0.000092789549   0.000167826770   0.000000000000
				   0.000000000000   0.000000000000   0.000000000000
				   0.000000000000   0.000000000000   0.000000000000
				   0.000038523742   -0.000186430124   0.000000000000
				   0.000104820061   -0.000226461690   0.000000000000
				   0.000131591931   -0.000141169238   0.000000000000
				   0.000049421404   0.000040731302   0.000000000000
				   -0.000206682151   0.000286602725   0.000000000000
				   -0.000704114722   0.000572712550   0.000000000000
				   -0.001491844259   0.000872857914   0.000000000000
				   -0.002631418186   0.001179148064   0.000000000000
				   -0.004171813528   0.001486412276   0.000000000000
				   -0.006180487492   0.001800156822   0.000000000000
				   -0.008717823921   0.002124679805   0.000000000000
				   -0.011871832779   0.002464975568   0.000000000000
				   -0.015708430193   0.002811823397   0.000000000000
				   -0.020327850899   0.003145408210   0.000000000000
				   -0.025709991632   0.003411474112   0.000000000000
				   -0.031721028658   0.003528956228   0.000000000000
				   -0.038044732648   0.003383894022   0.000000000000
				   -0.044016836172   0.002838650247   0.000000000000
				   -0.048621975214   0.001761592838   0.000000000000
				   -0.050414554953   0.000072096572   0.000000000000
				   -0.048164474703   -0.001924081631   0.000000000000
				   -0.042322277159   -0.003659130695   0.000000000000
				   -0.034186679615   -0.004853693020   0.000000000000
				   -0.025106087022   -0.005381027592   0.000000000000
				   -0.016303999285   -0.005257240694   0.000000000000
				   -0.008602383671   -0.004622981740   0.000000000000
				   -0.002482016950   -0.003667816099   0.000000000000
				   0.001923246428   -0.002581553166   0.000000000000
				   0.004731348815   -0.001515143756   0.000000000000
				   0.006212119614   -0.000547557807   0.000000000000
				   0.006639542196   0.000249434066   0.000000000000
				   0.006322104021   0.000867265861   0.000000000000
				   0.005518734609   0.001301326993   0.000000000000
				   0.004451104274   0.001554496006   0.000000000000
				   0.003305056782   0.001630178546   0.000000000000
				   0.002219748856   0.001536999328   0.000000000000
				   0.001288951834   0.001286324530   0.000000000000
				   0.000585616314   0.000904115859   0.000000000000
				   0.000148515559   0.000446916106   0.000000000000
				   0.000000000000   0.000000000000   0.000000000000
				   0.000000000000   0.000000000000   0.000000000000
				   0.000016046447   -0.000237310974   0.000000000000
				   0.000008492069   -0.000239835740   0.000000000000
				   -0.000094875808   -0.000046745728   0.000000000000
				   -0.000370406397   0.000297636945   0.000000000000
				   -0.000890437691   0.000744827661   0.000000000000
				   -0.001737445524   0.001260276240   0.000000000000
				   -0.002968240854   0.001802932217   0.000000000000
				   -0.004665764747   0.002360693741   0.000000000000
				   -0.006896038691   0.002924662519   0.000000000000
				   -0.009751901531   0.003502282907   0.000000000000
				   -0.013312449935   0.004097869014   0.000000000000
				   -0.017689587260   0.004714769542   0.000000000000
				   -0.022954948189   0.005330832884   0.000000000000
				   -0.029217290239   0.005902139325   0.000000000000
				   -0.036412222101   0.006326895780   0.000000000000
				   -0.044316866091   0.006456519955   0.000000000000
				   -0.052473840713   0.006090998212   0.000000000000
				   -0.059995634082   0.005001198318   0.000000000000
				   -0.065597029441   0.002983520101   0.000000000000
				   -0.067543292540   -0.000037789597   0.000000000000
				   -0.064433897998   -0.003527159701   0.000000000000
				   -0.056928493974   -0.006556556600   0.000000000000
				   -0.046645242067   -0.008644432272   0.000000000000
				   -0.035203189297   -0.009589891256   0.000000000000
				   -0.024059327794   -0.009422737562   0.000000000000
				   -0.014198757636   -0.008372279352   0.000000000000
				   -0.006219527713   -0.006752058283   0.000000000000
				   -0.000315654298   -0.004880394333   0.000000000000
				   0.003622874345   -0.003015895475   0.000000000000
				   0.005903415359   -0.001304886421   0.000000000000
				   0.006837952968   0.000124951392   0.000000000000
				   0.006800587171   0.001247454957   0.000000000000
				   0.006108112804   0.002049542835   0.000000000000
				   0.005034878390   0.002534382092   0.000000000000
				   0.003810639872   0.002710411212   0.000000000000
				   0.002608321912   0.002597256197   0.000000000000
				   0.001545335559   0.002219118127   0.000000000000
				   0.000716651539   0.001615689148   0.000000000000
				   0.000185507855   0.000852451735   0.000000000000
				   0.000000000000   0.000000000000   0.000000000000
				   0.000000000000   0.000000000000   0.000000000000
				   -0.000020796658   -0.000210200155   0.000000000000
				   -0.000142204826   -0.000101691620   0.000000000000
				   -0.000437863184   0.000272275591   0.000000000000
				   -0.000985841446   0.000851941076   0.000000000000
				   -0.001860745543   0.001573219644   0.000000000000
				   -0.003156769982   0.002392751965   0.000000000000
				   -0.004932677135   0.003254544508   0.000000000000
				   -0.007290753246   0.004144200473   0.000000000000
				   -0.010311273594   0.005049205448   0.000000000000
				   -0.014111127561   0.005978779013   0.000000000000
				   -0.018785120331   0.006934431644   0.000000000000
				   -0.024464408194   0.007912914334   0.000000000000
				   -0.031217148106   0.008869749714   0.000000000000
				   -0.039147310064   0.009723702949   0.000000000000
				   -0.048128678340   0.010306775861   0.000000000000
				   -0.057833919065   0.010382115859   0.000000000000
				   -0.067659980031   0.009644776708   0.000000000000
				   -0.076519359851   0.007763788621   0.000000000000
				   -0.082918192560   0.004469540591   0.000000000000
				   -0.084933437686   -0.000281933273   0.000000000000
				   -0.081076464330   -0.005666207262   0.000000000000
				   -0.072180500687   -0.010328643996   0.000000000000
				   -0.060091082276   -0.013553618322   0.000000000000
				   -0.046608324317   -0.015060241217   0.000000000000
				   -0.033358685358   -0.014891537549   0.000000000000
				   -0.021464936373   -0.013374382716   0.000000000000
				   -0.011643271073   -0.010964094639   0.000000000000
				   -0.004166488213   -0.008131711337   0.000000000000
				   0.001041909639   -0.005269163630   0.000000000000
				   0.004303673237   -0.002610446601   0.000000000000
				   0.005944961536   -0.000358760147   0.000000000000
				   0.006390065799   0.001432336228   0.000000000000
				   0.006001035598   0.002735366971   0.000000000000
				   0.005096054421   0.003552384750   0.000000000000
				   0.003942680707   0.003898169767   0.000000000000
				   0.002746310543   0.003806264990   0.000000000000
				   0.001650587991   0.003314508019   0.000000000000
				   0.000774344229   0.002472409080   0.000000000000
				   0.000203211432   0.001349019424   0.000000000000
				   0.000000000000   0.000000000000   0.000000000000
				   0.000000000000   0.000000000000   0.000000000000
				   -0.000071981143   -0.000054843463   0.000000000000
				   -0.000345397331   0.000279831103   0.000000000000
				   -0.000895141566   0.000941116741   0.000000000000
				   -0.001796897721   0.001854682110   0.000000000000
				   -0.003122776451   0.002942046891   0.000000000000
				   -0.004975486535   0.004154726962   0.000000000000
				   -0.007409508878   0.005422927223   0.000000000000
				   -0.010543953570   0.006733805178   0.000000000000
				   -0.014469511532   0.008072407462   0.000000000000
				   -0.019324674185   0.009449772959   0.000000000000
				   -0.025215438934   0.010860624040   0.000000000000
				   -0.032286334831   0.012287728164   0.000000000000
				   -0.040591751300   0.013651470215   0.000000000000
				   -0.050217631499   0.014816999787   0.000000000000
				   -0.060961080492   0.015529005057   0.000000000000
				   -0.072381510621   0.015443081923   0.000000000000
				   -0.083738534788   0.014135927701   0.000000000000
				   -0.093783512778   0.011174638062   0.000000000000
				   -0.100886561847   0.006239733049   0.000000000000
				   -0.103026364529   -0.000653838958   0.000000000000
				   -0.098665698875   -0.008347768471   0.000000000000
				   -0.088728386158   -0.015008428372   0.000000000000
				   -0.075180283981   -0.019658427712   0.000000000000
				   -0.059923592928   -0.021925697170   0.000000000000
				   -0.044712299640   -0.021854046860   0.000000000000
				   -0.030804703364   -0.019865832818   0.000000000000
				   -0.019054714221   -0.016569665424   0.000000000000
				   -0.009843533206   -0.012612377343   0.000000000000
				   -0.003158003183   -0.008547527285   0.000000000000
				   0.001316010842   -0.004720718579   0.000000000000
				   0.003897138166   -0.001434746507   0.000000000000
				   0.005048287835   0.001216647924   0.000000000000
				   0.005167784701   0.003183214874   0.000000000000
				   0.004612388551   0.004462599931   0.000000000000
				   0.003684638339   0.005075197294   0.000000000000
				   0.002623321009   0.005069492033   0.000000000000
				   0.001600808044   0.004497082428   0.000000000000
				   0.000758926616   0.003416027066   0.000000000000
				   0.000201812560   0.001900766082   0.000000000000
				   0.000000000000   0.000000000000   0.000000000000
				   0.000000000000   0.000000000000   0.000000000000
				   -0.000134840458   0.000280560669   0.000000000000
				   -0.000592769358   0.000998974471   0.000000000000
				   -0.001450672130   0.002085813236   0.000000000000
				   -0.002778286097   0.003453185250   0.000000000000
				   -0.004640604321   0.005010779899   0.000000000000
				   -0.007145437529   0.006710437957   0.000000000000
				   -0.010336736947   0.008471740760   0.000000000000
				   -0.014347027088   0.010289099968   0.000000000000
				   -0.019272647114   0.012147542076   0.000000000000
				   -0.025269437013   0.014060173616   0.000000000000
				   -0.032448488284   0.016009817753   0.000000000000
				   -0.040960020482   0.017955861289   0.000000000000
				   -0.050834169154   0.019768916202   0.000000000000
				   -0.062127773724   0.021243176604   0.000000000000
				   -0.074553679886   0.022017843814   0.000000000000
				   -0.087563615214   0.021628887761   0.000000000000
				   -0.100307435029   0.019533633187   0.000000000000
				   -0.111434686947   0.015209784567   0.000000000000
				   -0.119259751225   0.008310638254   0.000000000000
				   -0.121737703732   -0.001073395757   0.000000000000
				   -0.117274892639   -0.011438231661   0.000000000000
				   -0.106757737171   -0.020449306293   0.000000000000
				   -0.092154957885   -0.026843869056   0.000000000000
				   -0.075400372877   -0.030136984930   0.000000000000
				   -0.058346554679   -0.030342575106   0.000000000000
				   -0.042399426765   -0.027958672641   0.000000000000
				   -0.028583444625   -0.023746573315   0.000000000000
				   -0.017428124200   -0.018546720964   0.000000000000
				   -0.009019525232   -0.013102802724   0.000000000000
				   -0.003074510967   -0.007898855238   0.000000000000
				   0.000696584316   -0.003364779802   0.000000000000
				   0.002786285438   0.000349517301   0.000000000000
				   0.003622980914   0.003159934778   0.000000000000
				   0.003599393484   0.005054036408   0.000000000000
				   0.003052061929   0.006054903361   0.000000000000
				   0.002254509349   0.006225852354   0.000000000000
				   0.001409333711   0.005633560749   0.000000000000
				   0.000679393790   0.004346814451   0.000000000000
				   0.000184354869   0.002451641080   0.000000000000
				   0.000000000000   0.000000000000   0.000000000000
				   0.000000000000   0.000000000000   0.000000000000
				   -0.000211350332   0.000860483074   0.000000000000
				   -0.000886043856   0.002176227428   0.000000000000
				   -0.002104951473   0.003873159255   0.000000000000
				   -0.003928875103   0.005850084226   0.000000000000
				   -0.006411352940   0.008008011034   0.000000000000
				   -0.009662093321   0.010306478184   0.000000000000
				   -0.013708244089   0.012659177800   0.000000000000
				   -0.018692258866   0.015075551796   0.000000000000
				   -0.024710757014   0.017544221825   0.000000000000
				   -0.031931870758   0.020080629541   0.000000000000
				   -0.040464460920   0.022649288424   0.000000000000
				   -0.050455741475   0.025174797013   0.000000000000
				   -0.061901955432   0.027460960489   0.000000000000
				   -0.074822800003   0.029213657962   0.000000000000
				   -0.088847737182   0.029951255862   0.000000000000
				   -0.103338914395   0.029085894610   0.000000000000
				   -0.117379348279   0.025964242553   0.000000000000
				   -0.129584198312   0.019994338631   0.000000000000
				   -0.138285686259   0.010821577567   0.000000000000
				   -0.141462919562   -0.001389387125   0.000000000000
				   -0.137419400941   -0.014806374827   0.000000000000
				   -0.126856116981   -0.026587240520   0.000000000000
				   -0.111629145907   -0.035150623628   0.000000000000
				   -0.093640178666   -0.039858766841   0.000000000000
				   -0.074815446915   -0.040642153657   0.000000000000
				   -0.056726434475   -0.038034108356   0.000000000000
				   -0.040612550549   -0.032936156415   0.000000000000
				   -0.027205622492   -0.026398444469   0.000000000000
				   -0.016739021535   -0.019389888845   0.000000000000
				   -0.008990289492   -0.012569171702   0.000000000000
				   -0.003723408758   -0.006530188848   0.000000000000
				   -0.000423665393   -0.001501944810   0.000000000000
				   0.001364110468   0.002381566044   0.000000000000
				   0.002069236092   0.005088973033   0.000000000000
				   0.002063883505   0.006641312236   0.000000000000
				   0.001659437154   0.007116926572   0.000000000000
				   0.001091549908   0.006601215125   0.000000000000
				   0.000544152029   0.005178760734   0.000000000000
				   0.000152597465   0.002955878274   0.000000000000
				   0.000000000000   0.000000000000   0.000000000000
				   0.000000000000   0.000000000000   0.000000000000
				   -0.000299847733   0.001751840597   0.000000000000
				   -0.001218877638   0.003934253010   0.000000000000
				   -0.002843291643   0.006469453834   0.000000000000
				   -0.005221874112   0.009242679488   0.000000000000
				   -0.008392500639   0.012150411127   0.000000000000
				   -0.012463435793   0.015169308113   0.000000000000
				   -0.017439318788   0.018213890983   0.000000000000
				   -0.023468588841   0.021318414535   0.000000000000
				   -0.030642566956   0.024479686679   0.000000000000
				   -0.039135558454   0.027715649545   0.000000000000
				   -0.049046059053   0.030965225507   0.000000000000
				   -0.060509665965   0.034105477186   0.000000000000
				   -0.073481461389   0.036857113786   0.000000000000
				   -0.087941795297   0.038823930263   0.000000000000
				   -0.103448660098   0.039396574440   0.000000000000
				   -0.119306952321   0.037870500844   0.000000000000
				   -0.134585911820   0.033501272379   0.000000000000
				   -0.147932780375   0.025648892806   0.000000000000
				   -0.157753689475   0.013958519706   0.000000000000
				   -0.162075300844   -0.001356380807   0.000000000000
				   -0.159041435473   -0.018187556287   0.000000000000
				   -0.149033777175   -0.033199395800   0.000000000000
				   -0.133690863483   -0.044453815919   0.000000000000
				   -0.114811306430   -0.051105349723   0.000000000000
				   -0.094349219645   -0.052923592625   0.000000000000
				   -0.074041233130   -0.050407942720   0.000000000000
				   -0.055382001654   -0.044564007907   0.000000000000
				   -0.039370359561   -0.036656385855   0.000000000000
				   -0.026451843066   -0.027916744270   0.000000000000
				   -0.016508056024   -0.019225061754   0.000000000000
				   -0.009390933671   -0.011387992874   0.000000000000
				   -0.004574172963   -0.004746709105   0.000000000000
				   -0.001579074183   0.000491770650   0.000000000000
				   0.000062529656   0.004263992716   0.000000000000
				   0.000762202188   0.006582070151   0.000000000000
				   0.000874577044   0.007539679519   0.000000000000
				   0.000673599458   0.007246283174   0.000000000000
				   0.000367374920   0.005808463220   0.000000000000
				   0.000110660261   0.003361645051   0.000000000000
				   0.000000000000   0.000000000000   0.000000000000
				   0.000000000000   0.000000000000   0.000000000000
				   -0.000400486230   0.003034409974   0.000000000000
				   -0.001587035577   0.006418967673   0.000000000000
				   -0.003652322575   0.010072913802   0.000000000000
				   -0.006630342416   0.013867407871   0.000000000000
				   -0.010539383426   0.017699723181   0.000000000000
				   -0.015483079883   0.021575402094   0.000000000000
				   -0.021438413564   0.025418480655   0.000000000000
				   -0.028555721281   0.029299822185   0.000000000000
				   -0.036915287770   0.033229870760   0.000000000000
				   -0.046690681386   0.037229141968   0.000000000000
				   -0.057962085626   0.041202648837   0.000000000000
				   -0.070845641301   0.044967188396   0.000000000000
				   -0.085251783246   0.048146315353   0.000000000000
				   -0.101125431123   0.050234116033   0.000000000000
				   -0.117974659897   0.050495807330   0.000000000000
				   -0.135086220488   0.048127548236   0.000000000000
				   -0.151566872477   0.042318098444   0.000000000000
				   -0.166147254799   0.032395228533   0.000000000000
				   -0.177341442548   0.017995969789   0.000000000000
				   -0.183238755604   -0.000662257935   0.000000000000
				   -0.181798264912   -0.021269779604   0.000000000000
				   -0.172998807551   -0.040029222103   0.000000000000
				   -0.158169056672   -0.054612946010   0.000000000000
				   -0.138910155407   -0.063907546132   0.000000000000
				   -0.117113179983   -0.067424005526   0.000000000000
				   -0.094633322296   -0.065521605234   0.000000000000
				   -0.073235365682   -0.059235345962   0.000000000000
				   -0.054253219920   -0.050023539520   0.000000000000
				   -0.038432173759   -0.039415023533   0.000000000000
				   -0.025826347354   -0.028571093031   0.000000000000
				   -0.016430316236   -0.018579232294   0.000000000000
				   -0.009727810409   -0.009943656151   0.000000000000
				   -0.005224273929   -0.002980261688   0.000000000000
				   -0.002410680896   0.002194581490   0.000000000000
				   -0.000830167001   0.005573021713   0.000000000000
				   -0.000075848749   0.007263458666   0.000000000000
				   0.000173836496   0.007405556544   0.000000000000
				   0.000158658526   0.006134005554   0.000000000000
				   0.000060768941   0.003621489015   0.000000000000
				   0.000000000000   0.000000000000   0.000000000000
				   0.000000000000   0.000000000000   0.000000000000
				   -0.000508715136   0.004779146592   0.000000000000
				   -0.001974109641   0.009757076881   0.000000000000
				   -0.004495961507   0.014851238698   0.000000000000
				   -0.008091119840   0.019918671202   0.000000000000
				   -0.012755032924   0.024864347641   0.000000000000
				   -0.018583532602   0.029736673155   0.000000000000
				   -0.025521983475   0.034479812263   0.000000000000
				   -0.033718125337   0.039214481692   0.000000000000
				   -0.043235467408   0.043970855525   0.000000000000
				   -0.054239660047   0.048771759276   0.000000000000
				   -0.066785555584   0.053480393210   0.000000000000
				   -0.080963850820   0.057842799716   0.000000000000
				   -0.096641651175   0.061377173385   0.000000000000
				   -0.113737735312   0.063469257251   0.000000000000
				   -0.131736460138   0.063271887779   0.000000000000
				   -0.149942485822   0.059906228294   0.000000000000
				   -0.167535641448   0.052517279867   0.000000000000
				   -0.183357115538   0.040406931166   0.000000000000
				   -0.196047344637   0.023185793845   0.000000000000
				   -0.203791958388   0.001025961511   0.000000000000
				   -0.204417106020   -0.023647008691   0.000000000000
				   -0.197495030945   -0.046636374853   0.000000000000
				   -0.183971164191   -0.065226814028   0.000000000000
				   -0.165126686574   -0.077996054219   0.000000000000
				   -0.142637465090   -0.084094484881   0.000000000000
				   -0.118353558776   -0.083597015397   0.000000000000
				   -0.094259228326   -0.077434134534   0.000000000000
				   -0.072065779090   -0.067181918823   0.000000000000
				   -0.052921038550   -0.054673469446   0.000000000000
				   -0.037155083611   -0.041415743749   0.000000000000
				   -0.024993518936   -0.028866496534   0.000000000000
				   -0.015975892183   -0.017770334881   0.000000000000
				   -0.009612458330   -0.008608711654   0.000000000000
				   -0.005356682857   -0.001585675332   0.000000000000
				   -0.002700587581   0.003251296327   0.000000000000
				   -0.001172963643   0.006020725907   0.000000000000
				   -0.000391082777   0.006897399992   0.000000000000
				   -0.000071701412   0.006048268652   0.000000000000
				   0.000006689415   0.003689384523   0.000000000000
				   0.000000000000   0.000000000000   0.000000000000
				   0.000000000000   0.000000000000   0.000000000000
				   -0.000620621097   0.007059167381   0.000000000000
				   -0.002361791805   0.014080226010   0.000000000000
				   -0.005331272120   0.020980353846   0.000000000000
				   -0.009528103166   0.027602775684   0.000000000000
				   -0.014923200910   0.033868330043   0.000000000000
				   -0.021601940706   0.039884158326   0.000000000000
				   -0.029475512485   0.045626538812   0.000000000000
				   -0.038684041670   0.051280605695   0.000000000000
				   -0.049268715296   0.056902713207   0.000000000000
				   -0.061379915023   0.062518035790   0.000000000000
				   -0.075041288217   0.067941420301   0.000000000000
				   -0.090314001078   0.072841356555   0.000000000000
				   -0.107026601471   0.076628946414   0.000000000000
				   -0.125081378655   0.078591054848   0.000000000000
				   -0.143960587585   0.077787250437   0.000000000000
				   -0.163007816047   0.073287897220   0.000000000000
				   -0.181486662051   0.064211344299   0.000000000000
				   -0.198356137684   0.049835764075   0.000000000000
				   -0.212405093058   0.029734494528   0.000000000000
				   -0.221993687403   0.004002937118   0.000000000000
				   -0.224962674946   -0.024900113315   0.000000000000
				   -0.220557406297   -0.052485826180   0.000000000000
				   -0.209292460102   -0.075718770787   0.000000000000
				   -0.191993602032   -0.092873884136   0.000000000000
				   -0.169920095309   -0.102660445673   0.000000000000
				   -0.144705592960   -0.104698670373   0.000000000000
				   -0.118397756982   -0.099607640075   0.000000000000
				   -0.093050908665   -0.088913644191   0.000000000000