<VTKFile type="UnstructuredGrid" version="0.1" byte_order="BigEndian">
	<UnstructuredGrid>
		<Piece NumberOfPoints="1681" NumberOfCells="3200">
			<PointData Scalars="scalars" Vectors = "Velocity">
				<DataArray type="Float32" Name="Velocity" NumberOfComponents="3" Format="ascii">
				   0.000000000000   0.000000000000   0.000000000000
				   0.000000000000   0.000000000000   0.000000000000
				   0.000000000000   0.000000000000   0.000000000000
				   0.000000000000   0.000000000000   0.000000000000
				   0.000000000000   0.000000000000   0.000000000000
				   0.000000000000   0.000000000000   0.000000000000
				   0.000000000000   0.000000000000   0.000000000000
				   0.000000000000   0.000000000000   0.000000000000
				   0.000000000000   0.000000000000   0.000000000000
				   0.000000000000   0.000000000000   0.000000000000
				   0.000000000000   0.000000000000   0.000000000000
				   0.000000000000   0.000000000000   0.000000000000
				   0.000000000000   0.000000000000   0.000000000000
				   0.000000000000   0.000000000000   0.000000000000
				   0.000000000000   0.000000000000   0.000000000000
				   0.000000000000   0.000000000000   0.000000000000
				   0.000000000000   0.000000000000   0.000000000000
				   0.000000000000   0.000000000000   0.000000000000
				   0.000000000000   0.000000000000   0.000000000000
				   0.000000000000   0.000000000000   0.000000000000
				   0.000000000000   0.000000000000   0.000000000000
				   0.000000000000   0.000000000000   0.000000000000
				   0.000000000000   0.000000000000   0.000000000000
				   0.000000000000   0.000000000000   0.000000000000
				   0.000000000000   0.000000000000   0.000000000000
				   0.000000000000   0.000000000000   0.000000000000
				   0.000000000000   0.000000000000   0.000000000000
				   0.000000000000   0.000000000000   0.000000000000
				   0.000000000000   0.000000000000   0.000000000000
				   0.000000000000   0.000000000000   0.000000000000
				   0.000000000000   0.000000000000   0.000000000000
				   0.000000000000   0.000000000000   0.000000000000
				   0.000000000000   0.000000000000   0.000000000000
				   0.000000000000   0.000000000000   0.000000000000
				   0.000000000000   0.000000000000   0.000000000000
				   0.000000000000   0.000000000000   0.000000000000
				   0.000000000000   0.000000000000   0.000000000000
				   0.000000000000   0.000000000000   0.000000000000
				   0.000000000000   0.000000000000   0.000000000000
				   0.000000000000   0.000000000000   0.000000000000
				   0.000000000000   0.000000000000   0.000000000000
				   0.000000000000   0.000000000000   0.000000000000
				   0.000040444733   -0.000040541863   0.000000000000
				   0.000176675723   -0.000079901189   0.000000000000
				   0.000373195503   -0.000095514687   0.000000000000
				   0.000585708735   -0.000088553269   0.000000000000
				   0.000766421145   -0.000064992817   0.000000000000
				   0.000873846621   -0.000029536524   0.000000000000
				   0.000868472128   0.000012497988   0.000000000000
				   0.000716174719   0.000059680774   0.000000000000
				   0.000383542352   0.000110693049   0.000000000000
				   -0.000171514354   0.000167692781   0.000000000000
				   -0.000999937894   0.000233039166   0.000000000000
				   -0.002178296623   0.000311740818   0.000000000000
				   -0.003798958479   0.000405975342   0.000000000000
				   -0.005996257385   0.000519319390   0.000000000000
				   -0.008872077185   0.000641679183   0.000000000000
				   -0.012480068380   0.000756326180   0.000000000000
				   -0.016750498339   0.000830882623   0.000000000000
				   -0.021334987558   0.000813296459   0.000000000000
				   -0.025521021124   0.000642086142   0.000000000000
				   -0.028089654685   0.000238389377   0.000000000000
				   -0.027743510723   -0.000329709799   0.000000000000
				   -0.024360397265   -0.000845385626   0.000000000000
				   -0.018825329298   -0.001199563744   0.000000000000
				   -0.012327111627   -0.001335769734   0.000000000000
				   -0.006039966121   -0.001250010973   0.000000000000
				   -0.000792098566   -0.001005111935   0.000000000000
				   0.002997316338   -0.000684893598   0.000000000000
				   0.005302476527   -0.000366962397   0.000000000000
				   0.006353961230   -0.000101960516   0.000000000000
				   0.006484239098   0.000101276142   0.000000000000
				   0.006004626354   0.000233399698   0.000000000000
				   0.005177913030   0.000313260548   0.000000000000
				   0.004190007688   0.000352714781   0.000000000000
				   0.003170340530   0.000361651603   0.000000000000
				   0.002212067933   0.000344936102   0.000000000000
				   0.001378101030   0.000304775036   0.000000000000
				   0.000714160046   0.000239273649   0.000000000000
				   0.000264392482   0.000147445354   0.000000000000
				   0.000042257416   0.000042773225   0.000000000000
				   0.000000000000   0.000000000000   0.000000000000
				   0.000000000000   0.000000000000   0.000000000000
				   0.000080235840   -0.000176932474   0.000000000000
				   0.000296417902   -0.000296270158   0.000000000000
				   0.000586095811   -0.000333697978   0.000000000000
				   0.000878093656   -0.000293756691   0.000000000000
				   0.001095770310   -0.000193477151   0.000000000000
				   0.001165068064   -0.000048680640   0.000000000000
				   0.001012026883   0.000123017779   0.000000000000
				   0.000564118804   0.000314923536   0.000000000000
				   -0.000251998319   0.000522954761   0.000000000000
				   -0.001529126911   0.000753136718   0.000000000000
				   -0.003374023145   0.001013386309   0.000000000000
				   -0.005939338118   0.001317317878   0.000000000000
				   -0.009394271317   0.001668914625   0.000000000000
				   -0.013975334389   0.002067716526   0.000000000000
				   -0.019827226242   0.002473338366   0.000000000000
				   -0.026966070294   0.002814165603   0.000000000000
				   -0.035147403911   0.002971091818   0.000000000000
				   -0.043595326576   0.002776945194   0.000000000000
				   -0.050916978405   0.002054018281   0.000000000000
				   -0.054970320355   0.000652826934   0.000000000000
				   -0.053646039115   -0.001203249295   0.000000000000
				   -0.047014129105   -0.002921449140   0.000000000000
				   -0.036778012748   -0.004127074606   0.000000000000
				   -0.024986227599   -0.004635460341   0.000000000000
				   -0.013591876241   -0.004426860461   0.000000000000
				   -0.003957520401   -0.003674045922   0.000000000000
				   0.003196132163   -0.002629426864   0.000000000000
				   0.007779985700   -0.001539305170   0.000000000000
				   0.010134966236   -0.000578111275   0.000000000000
				   0.010796767888   0.000192226849   0.000000000000
				   0.010283006645   0.000735029008   0.000000000000
				   0.009057604339   0.001088348956   0.000000000000
				   0.007463877928   0.001286486169   0.000000000000
				   0.005752196780   0.001359688496   0.000000000000
				   0.004107774396   0.001324816610   0.000000000000
				   0.002654925976   0.001189682854   0.000000000000
				   0.001474445052   0.000954338681   0.000000000000
				   0.000633023921   0.000629160050   0.000000000000
				   0.000149456074   0.000266377693   0.000000000000
				   0.000000000000   0.000000000000   0.000000000000
				   0.000000000000   0.000000000000   0.000000000000
				   0.000095344461   -0.000372758842   0.000000000000
				   0.000328575400   -0.000583563381   0.000000000000
				   0.000615048678   -0.000625295335   0.000000000000
				   0.000862453594   -0.000512089341   0.000000000000
				   0.000974001152   -0.000274358491   0.000000000000
				   0.000848781928   0.000060214062   0.000000000000
				   0.000385489059   0.000458484097   0.000000000000
				   -0.000528612549   0.000907950287   0.000000000000
				   -0.002009713563   0.001401105609   0.000000000000
				   -0.004207685253   0.001949384546   0.000000000000
				   -0.007287698102   0.002567317172   0.000000000000
				   -0.011475765797   0.003277198121   0.000000000000
				   -0.016998792384   0.004078181812   0.000000000000
				   -0.024157193192   0.004949413935   0.000000000000
				   -0.033068917057   0.005787270351   0.000000000000
				   -0.043615077735   0.006415495262   0.000000000000
				   -0.055275266337   0.006568454897   0.000000000000
				   -0.066799073232   0.005910480443   0.000000000000
				   -0.076209016449   0.004126373210   0.000000000000
				   -0.080778447121   0.001044931161   0.000000000000
				   -0.078068018257   -0.002833945071   0.000000000000
				   -0.068538506875   -0.006389209846   0.000000000000
				   -0.054526470922   -0.008877908607   0.000000000000
				   -0.038590162676   -0.009961745663   0.000000000000
				   -0.023121658487   -0.009607251736   0.000000000000
				   -0.009807634358   -0.008130866471   0.000000000000
				   0.000395646532   -0.006013466136   0.000000000000
				   0.007287222516   -0.003739767271   0.000000000000
				   0.011213783138   -0.001670537075   0.000000000000
				   0.012807639125   0.000036043770   0.000000000000
				   0.012700831952   0.001289096670   0.000000000000
				   0.011504800301   0.002138999069   0.000000000000
				   0.009690467202   0.002645000135   0.000000000000
				   0.007616444500   0.002864919120   0.000000000000
				   0.005553686838   0.002836625672   0.000000000000
				   0.003684975889   0.002583742008   0.000000000000
				   0.002123863884   0.002118716033   0.000000000000
				   0.000961393733   0.001471600577   0.000000000000
				   0.000243695960   0.000721524688   0.000000000000
				   0.000000000000   0.000000000000   0.000000000000
				   0.000000000000   0.000000000000   0.000000000000
				   0.000084048362   -0.000577176271   0.000000000000
				   0.000266374602   -0.000856934584   0.000000000000
				   0.000448938783   -0.000857994874   0.000000000000
				   0.000524071898   -0.000610339378   0.000000000000
				   0.000380583338   -0.000159944706   0.000000000000
				   -0.000105940402   0.000455419366   0.000000000000
				   -0.001057010582   0.001186939509   0.000000000000
				   -0.002625843674   0.002019102611   0.000000000000
				   -0.004971286526   0.002941827441   0.000000000000
				   -0.008302862448   0.003973255544   0.000000000000
				   -0.012841726472   0.005132387193   0.000000000000
				   -0.018877666987   0.006444381439   0.000000000000
				   -0.026667065716   0.007887718018   0.000000000000
				   -0.036523810965   0.009393960899   0.000000000000
				   -0.048459480926   0.010752102879   0.000000000000
				   -0.062127654449   0.011628838008   0.000000000000
				   -0.076666275238   0.011566357605   0.000000000000
				   -0.090385961602   0.010044432625   0.000000000000
				   -0.100924696941   0.006642424837   0.000000000000
				   -0.105348172881   0.001244607141   0.000000000000
				   -0.101271314964   -0.005268778646   0.000000000000
				   -0.089536837059   -0.011160473649   0.000000000000
				   -0.072804562479   -0.015287296348   0.000000000000
				   -0.053810783134   -0.017157919412   0.000000000000
				   -0.035137351945   -0.016714014952   0.000000000000
				   -0.018681807087   -0.014413812600   0.000000000000
				   -0.005626107687   -0.010989729602   0.000000000000
				   0.003658121122   -0.007209239019   0.000000000000
				   0.009436696032   -0.003671731240   0.000000000000
				   0.012356815597   -0.000674956425   0.000000000000
				   0.013090013792   0.001599686548   0.000000000000
				   0.012349709687   0.003198418592   0.000000000000
				   0.010704679963   0.004198717703   0.000000000000
				   0.008606041168   0.004687946784   0.000000000000
				   0.006401847372   0.004732403423   0.000000000000
				   0.004332473267   0.004382256940   0.000000000000
				   0.002549862242   0.003670482068   0.000000000000
				   0.001179416798   0.002644150217   0.000000000000
				   0.000305729299   0.001388208189   0.000000000000
				   0.000000000000   0.000000000000   0.000000000000
				   0.000000000000   0.000000000000   0.000000000000
				   0.000048401133   -0.000725645901   0.000000000000
				   0.000112273649   -0.001008100885   0.000000000000
				   0.000087606698   -0.000891048741   0.000000000000
				   -0.000141244020   -0.000423342378   0.000000000000
				   -0.000693627224   0.000332683555   0.000000000000
				   -0.001714568090   0.001333041794   0.000000000000
				   -0.003338686069   0.002515624920   0.000000000000
				   -0.005758991854   0.003867519567   0.000000000000
				   -0.009174195920   0.005378200215   0.000000000000
				   -0.013851505796   0.007072847587   0.000000000000
				   -0.020058743529   0.008968307138   0.000000000000
				   -0.028130028717   0.011078718255   0.000000000000
				   -0.038311495293   0.013334658183   0.000000000000
				   -0.050868756139   0.015581493742   0.000000000000
				   -0.065628326878   0.017450712643   0.000000000000
				   -0.081953187519   0.018410036329   0.000000000000
				   -0.098645298357   0.017797622950   0.000000000000
				   -0.113717502534   0.014944939178   0.000000000000
				   -0.124702310110   0.009404181727   0.000000000000
				   -0.128792667245   0.001189320625   0.000000000000
				   -0.123843433515   -0.008398772186   0.000000000000
				   -0.110865422602   -0.017006003434   0.000000000000
				   -0.092490202270   -0.023102250642   0.000000000000
				   -0.071376070345   -0.026035429852   0.000000000000
				   -0.050145482086   -0.025679569076   0.000000000000
				   -0.030874533595   -0.022592510195   0.000000000000
				   -0.015009034842   -0.017749412885   0.000000000000
				   -0.003162681584   -0.012227628083   0.000000000000
				   0.004775942170   -0.006914155164   0.000000000000
				   0.009411158006   -0.002292612239   0.000000000000
				   0.011399245906   0.001321107545   0.000000000000
				   0.011522753943   0.003945127570   0.000000000000
				   0.010423915991   0.005661274753   0.000000000000
				   0.008632078500   0.006583375526   0.000000000000
				   0.006564746404   0.006809919217   0.000000000000
				   0.004521151398   0.006424946015   0.000000000000
				   0.002698889357   0.005485534409   0.000000000000
				   0.001262426310   0.004050680275   0.000000000000
				   0.000331660671   0.002201946608   0.000000000000
				   0.000000000000   0.000000000000   0.000000000000
				   0.000000000000   0.000000000000   0.000000000000
				   -0.000012757500   -0.000743216310   0.000000000000
				   -0.000136743178   -0.000903419471   0.000000000000
				   -0.000478109827   -0.000545085098   0.000000000000
				   -0.001152295684   0.000263894222   0.000000000000
				   -0.002279252774   0.001446628899   0.000000000000
				   -0.004021370952   0.002959961368   0.000000000000
				   -0.006518768980   0.004733268624   0.000000000000
				   -0.010003060284   0.006764497670   0.000000000000
				   -0.014707661094   0.009045111386   0.000000000000
				   -0.020950677332   0.011605291149   0.000000000000
				   -0.029029019755   0.014446327276   0.000000000000
				   -0.039290194008   0.017546904448   0.000000000000
				   -0.051918676366   0.020749288135   0.000000000000
				   -0.067064310275   0.023764508049   0.000000000000
				   -0.084306345021   0.026018968007   0.000000000000
				   -0.102707649772   0.026765163809   0.000000000000
				   -0.120827916685   0.025171918372   0.000000000000
				   -0.136605445076   0.020505121307   0.000000000000
				   -0.147747743825   0.012381216433   0.000000000000
				   -0.151782116244   0.000977104993   0.000000000000
				   -0.146781702929   -0.012024923376   0.000000000000
				   -0.133618013375   -0.023716485821   0.000000000000
				   -0.114599062151   -0.032196648241   0.000000000000
				   -0.092134325332   -0.036612558368   0.000000000000
				   -0.068793825647   -0.036688873496   0.000000000000
				   -0.046829896507   -0.032999977853   0.000000000000
				   -0.028017413403   -0.026727630170   0.000000000000
				   -0.013305982010   -0.019279056957   0.000000000000
				   -0.002818887773   -0.011887935935   0.000000000000
				   0.003957683325   -0.005283745208   0.000000000000
				   0.007624838252   0.000026999816   0.000000000000
				   0.009015452851   0.004002935254   0.000000000000
				   0.008830671360   0.006710577106   0.000000000000
				   0.007669859877   0.008282657651   0.000000000000
				   0.006016037460   0.008849568644   0.000000000000
				   0.004229848162   0.008533463936   0.000000000000
				   0.002559600895   0.007418639890   0.000000000000
				   0.001207361928   0.005576647361   0.000000000000
				   0.000320449186   0.003090748371   0.000000000000
				   0.000000000000   0.000000000000   0.000000000000
				   0.000000000000   0.000000000000   0.000000000000
				   -0.000098103276   -0.000539314263   0.000000000000
				   -0.000476468987   -0.000382070360   0.000000000000
				   -0.001240109486   0.000390433682   0.000000000000
				   -0.002494848462   0.001693719246   0.000000000000
				   -0.004352134707   0.003442496178   0.000000000000
				   -0.006986866388   0.005605998345   0.000000000000
				   -0.010536035327   0.008113374297   0.000000000000
				   -0.015266029377   0.010983336054   0.000000000000
				   -0.021435480747   0.014210493099   0.000000000000
				   -0.029398481687   0.017822837443   0.000000000000
				   -0.039452907210   0.021783975271   0.000000000000
				   -0.051916796264   0.026001993358   0.000000000000
				   -0.066857711833   0.030183432221   0.000000000000
				   -0.084254616649   0.033861763471   0.000000000000
				   -0.103426684607   0.036238407260   0.000000000000
				   -0.123210083953   0.036384937388   0.000000000000
				   -0.142097385636   0.033387783909   0.000000000000
				   -0.158188219774   0.026549268507   0.000000000000
				   -0.169543209268   0.015606263218   0.000000000000
				   -0.174060006147   0.000861899505   0.000000000000
				   -0.169896927587   -0.015734953372   0.000000000000
				   -0.157550936301   -0.030826070175   0.000000000000
				   -0.138838685490   -0.042152711222   0.000000000000
				   -0.115802109063   -0.048603004042   0.000000000000
				   -0.090847679854   -0.049645087065   0.000000000000
				   -0.066351189476   -0.045743207681   0.000000000000
				   -0.044454398215   -0.038203288234   0.000000000000
				   -0.026551759637   -0.028755736671   0.000000000000
				   -0.013111367449   -0.019042047951   0.000000000000
				   -0.003771733280   -0.010114334563   0.000000000000
				   0.001974373516   -0.002741120533   0.000000000000
				   0.004999849015   0.002936010065   0.000000000000
				   0.006059167563   0.006943365514   0.000000000000
				   0.005819924766   0.009420952710   0.000000000000
				   0.004829933444   0.010527054430   0.000000000000
				   0.003513202823   0.010424647688   0.000000000000
				   0.002170415573   0.009231228103   0.000000000000
				   0.001036578791   0.007039082715   0.000000000000
				   0.000279101564   0.003948530773   0.000000000000
				   0.000000000000   0.000000000000   0.000000000000
				   0.000000000000   0.000000000000   0.000000000000
				   -0.000212022554   -0.000003059271   0.000000000000
				   -0.000914272171   0.000755205432   0.000000000000
				   -0.002207923976   0.002180832487   0.000000000000
				   -0.004178738526   0.004177496986   0.000000000000
				   -0.006919295438   0.006662738588   0.000000000000
				   -0.010611134019   0.009635809071   0.000000000000
				   -0.015378302099   0.013037396125   0.000000000000
				   -0.021515656756   0.016917998027   0.000000000000
				   -0.029292895189   0.021272845627   0.000000000000
				   -0.039077322511   0.026112830163   0.000000000000
				   -0.051130650168   0.031330934129   0.000000000000
				   -0.065692264349   0.036720219748   0.000000000000
				   -0.082665019190   0.041803871699   0.000000000000
				   -0.101831329075   0.045912810065   0.000000000000
				   -0.122296242382   0.048043615442   0.000000000000
				   -0.142803337687   0.047168755971   0.000000000000
				   -0.161962142775   0.042401055395   0.000000000000
				   -0.178185074290   0.033155566368   0.000000000000
				   -0.189922577208   0.019288281539   0.000000000000
				   -0.195391544642   0.001148381021   0.000000000000
				   -0.192769039517   -0.019180242827   0.000000000000
				   -0.182110234347   -0.038000545402   0.000000000000
				   -0.164664294971   -0.052720851594   0.000000000000
				   -0.141980284417   -0.061920999352   0.000000000000
				   -0.116126506378   -0.064694804911   0.000000000000
				   -0.089451291894   -0.061223372248   0.000000000000
				   -0.064420176848   -0.052785950242   0.000000000000
				   -0.042974703763   -0.041379481924   0.000000000000
				   -0.026095096312   -0.029112059402   0.000000000000
				   -0.013690556562   -0.017467829781   0.000000000000
				   -0.005412988708   -0.007585902289   0.000000000000
				   -0.000362577256   0.000226962373   0.000000000000
				   0.002270060980   0.005921854149   0.000000000000
				   0.003227210568   0.009630986163   0.000000000000
				   0.003127539096   0.011535632848   0.000000000000
				   0.002464041797   0.011844645838   0.000000000000
				   0.001593257220   0.010720231558   0.000000000000
				   0.000781718133   0.008290209316   0.000000000000
				   0.000215473759   0.004693454522   0.000000000000
				   0.000000000000   0.000000000000   0.000000000000
				   0.000000000000   0.000000000000   0.000000000000
				   -0.000353848327   0.000993426214   0.000000000000
				   -0.001444403920   0.002731676190   0.000000000000
				   -0.003364396577   0.005113640108   0.000000000000
				   -0.006167393455   0.008039990001   0.000000000000
				   -0.009915549042   0.011449455568   0.000000000000
				   -0.014789524668   0.015395873322   0.000000000000
				   -0.020889475880   0.019846831268   0.000000000000
				   -0.028528121105   0.024894466778   0.000000000000
				   -0.037966405833   0.030525845321   0.000000000000
				   -0.049554004926   0.036710241404   0.000000000000
				   -0.063474913973   0.043228826139   0.000000000000
				   -0.079845085077   0.049715316014   0.000000000000
				   -0.098380754633   0.055480066218   0.000000000000
				   -0.118687872459   0.059664944613   0.000000000000
				   -0.139757002439   0.061130609018   0.000000000000
				   -0.160384425419   0.058859125411   0.000000000000
				   -0.179409153050   0.052077691598   0.000000000000
				   -0.195576731232   0.040336642396   0.000000000000
				   -0.207672825742   0.023571140450   0.000000000000
				   -0.214221404579   0.002104545476   0.000000000000
				   -0.213520568241   -0.021956772220   0.000000000000
				   -0.205274208308   -0.044711506423   0.000000000000
				   -0.190140771219   -0.063318936625   0.000000000000
				   -0.169037201103   -0.076052916471   0.000000000000
				   -0.143461040383   -0.081537772245   0.000000000000
				   -0.115468940554   -0.079469263784   0.000000000000
				   -0.087655969869   -0.070857818687   0.000000000000
				   -0.062512394762   -0.057800925458   0.000000000000
				   -0.041724400523   -0.042873893909   0.000000000000
				   -0.025689399576   -0.028120521236   0.000000000000
				   -0.014359465535   -0.015211463630   0.000000000000
				   -0.006852037975   -0.004732529830   0.000000000000
				   -0.002304973940   0.003132207499   0.000000000000
				   0.000109585115   0.008484399103   0.000000000000
				   0.001094619982   0.011522812715   0.000000000000
				   0.001224986668   0.012510472041   0.000000000000
				   0.000922764254   0.011670852392   0.000000000000
				   0.000491882656   0.009185328634   0.000000000000
				   0.000144012936   0.005253259645   0.000000000000
				   0.000000000000   0.000000000000   0.000000000000
				   0.000000000000   0.000000000000   0.000000000000
				   -0.000524099329   0.002601562189   0.000000000000
				   -0.002058535293   0.005807832708   0.000000000000
				   -0.004682248755   0.009520091902   0.000000000000
				   -0.008404208348   0.013651318780   0.000000000000
				   -0.013244226348   0.018188824299   0.000000000000
				   -0.019373074565   0.023273465125   0.000000000000
				   -0.026854740385   0.028917741582   0.000000000000
				   -0.036004418497   0.035262204152   0.000000000000
				   -0.047049573301   0.042268661196   0.000000000000
				   -0.060286990129   0.049831319337   0.000000000000
				   -0.075785442844   0.057575966071   0.000000000000
				   -0.093509773667   0.064944961184   0.000000000000
				   -0.113003021268   0.071038509915   0.000000000000
				   -0.133751756028   0.074864398719   0.000000000000
				   -0.154739724053   0.075243791915   0.000000000000
				   -0.174902495060   0.071261958999   0.000000000000
				   -0.193311543188   0.062300326247   0.000000000000
				   -0.208988023213   0.048035990148   0.000000000000
				   -0.221026823726   0.028465074067   0.000000000000
				   -0.228363291512   0.003867106605   0.000000000000
				   -0.229651197061   -0.023719920483   0.000000000000
				   -0.224401649452   -0.050379110919   0.000000000000
				   -0.212688432000   -0.073192309296   0.000000000000
				   -0.194682574981   -0.090209610922   0.000000000000
				   -0.171079536716   -0.099550063000   0.000000000000
				   -0.143318039239   -0.100230585118   0.000000000000
				   -0.113770743166   -0.092670284025   0.000000000000
				   -0.085268435988   -0.078742889320   0.000000000000
				   -0.060289095470   -0.061340116483   0.000000000000
				   -0.040016031162   -0.043156009647   0.000000000000
				   -0.024983578972   -0.026613240924   0.000000000000
				   -0.014465029863   -0.012778262329   0.000000000000
				   -0.007578228935   -0.002091139434   0.000000000000
				   -0.003403656649   0.005469395506   0.000000000000
				   -0.001134850126   0.010107705799   0.000000000000
				   -0.000091271000   0.012151692769   0.000000000000
				   0.000236305706   0.011906794925   0.000000000000
				   0.000206978890   0.009626616261   0.000000000000
				   0.000075998139   0.005590375832   0.000000000000
				   0.000000000000   0.000000000000   0.000000000000
				   0.000000000000   0.000000000000   0.000000000000
				   -0.000713411011   0.004962989010   0.000000000000
				   -0.002721036388   0.010218284068   0.000000000000
				   -0.006082798421   0.015685050116   0.000000000000
				   -0.010752282925   0.021312293161   0.000000000000
				   -0.016696019608   0.027173099340   0.000000000000
				   -0.024064089671   0.033534271883   0.000000000000
				   -0.032871274258   0.040472156252   0.000000000000
				   -0.043415052748   0.048177100836   0.000000000000
				   -0.055862950797   0.056561211291   0.000000000000
				   -0.070425999785   0.065407235051   0.000000000000
				   -0.087035495593   0.074152671074   0.000000000000
				   -0.105504511327   0.082044183197   0.000000000000
				   -0.125248309772   0.088014031302   0.000000000000
				   -0.145699403782   0.091016633693   0.000000000000
				   -0.165900976907   0.089921100134   0.000000000000
				   -0.184928981285   0.083964467529   0.000000000000
				   -0.202024428717   0.072688104235   0.000000000000
				   -0.216443751256   0.055907528154   0.000000000000
				   -0.227642487483   0.033720763302   0.000000000000
				   -0.235126282540   0.006396457873   0.000000000000
				   -0.238150664358   -0.024180734250   0.000000000000
				   -0.236209212540   -0.054319811047   0.000000000000
				   -0.228864358478   -0.081276857022   0.000000000000
				   -0.215525256231   -0.103057480032   0.000000000000
				   -0.195940940947   -0.117348992641   0.000000000000
				   -0.170636471012   -0.122381142673   0.000000000000
				   -0.141327580232   -0.117655134521   0.000000000000
				   -0.110744054647   -0.104357619339   0.000000000000
				   -0.081942582319   -0.085295537533   0.000000000000
				   -0.057073504308   -0.063711676967   0.000000000000
				   -0.037652625945   -0.042984952550   0.000000000000
				   -0.023437543096   -0.024972320630   0.000000000000
				   -0.013658559660   -0.010600661602   0.000000000000
				   -0.007330189684   -0.000050619934   0.000000000000
				   -0.003528476874   0.006844827304   0.000000000000
				   -0.001436632281   0.010482238963   0.000000000000
				   -0.000424738726   0.011270023976   0.000000000000
				   -0.000048137226   0.009550079940   0.000000000000
				   0.000020553918   0.005695898938   0.000000000000
				   0.000000000000   0.000000000000   0.000000000000
				   0.000000000000   0.000000000000   0.000000000000
				   -0.000909865042   0.008207842965   0.000000000000
				   -0.003382696309   0.016177707240   0.000000000000
				   -0.007457687467   0.023867140589   0.000000000000
				   -0.013028053530   0.031292164438   0.000000000000
				   -0.019999456055   0.038656672942   0.000000000000
				   -0.028489421655   0.046396645401   0.000000000000
				   -0.038450515424   0.054670560753   0.000000000000
				   -0.050139633873   0.063715146884   0.000000000000
				   -0.063641179627   0.073365318964   0.000000000000
				   -0.079057676034   0.083261557741   0.000000000000
				   -0.096181753005   0.092640881118   0.000000000000
				   -0.114696953905   0.100580149030   0.000000000000
				   -0.133943944407   0.105910323467   0.000000000000
				   -0.153337688756   0.107605814802   0.000000000000
				   -0.171985977977   0.104636529072   0.000000000000
				   -0.189060901808   0.096409174063   0.000000000000
				   -0.203930920673   0.082647734781   0.000000000000
				   -0.216118610740   0.063375834061   0.000000000000
				   -0.225528532190   0.038881608896   0.000000000000
				   -0.232344020281   0.009472663145   0.000000000000
				   -0.236577699088   -0.023204791088   0.000000000000
				   -0.237864138502   -0.055948564482   0.000000000000
				   -0.235408066092   -0.086482537427   0.000000000000
				   -0.227980911360   -0.113029702534   0.000000000000
				   -0.214401245344   -0.133055159430   0.000000000000
				   -0.194117056346   -0.144050106273   0.000000000000
				   -0.167799851369   -0.144375960337   0.000000000000
				   -0.137526608964   -0.134036051512   0.000000000000