<VTKFile type="UnstructuredGrid" version="0.1" byte_order="BigEndian">
	<UnstructuredGrid>
		<Piece NumberOfPoints="1681" NumberOfCells="3200">
			<PointData Scalars="scalars" Vectors = "Velocity">
				<DataArray type="Float32" Name="Velocity" NumberOfComponents="3" Format="ascii">
				   0.000000000000   0.000000000000   0.000000000000
				   0.000000000000   0.000000000000   0.000000000000
				   0.000000000000   0.000000000000   0.000000000000
				   0.000000000000   0.000000000000   0.000000000000
				   0.000000000000   0.000000000000   0.000000000000
				   0.000000000000   0.000000000000   0.000000000000
				   0.000000000000   0.000000000000   0.000000000000
				   0.000000000000   0.000000000000   0.000000000000
				   0.000000000000   0.000000000000   0.000000000000
				   0.000000000000   0.000000000000   0.000000000000
				   0.000000000000   0.000000000000   0.000000000000
				   0.000000000000   0.000000000000   0.000000000000
				   0.000000000000   0.000000000000   0.000000000000
				   0.000000000000   0.000000000000   0.000000000000
				   0.000000000000   0.000000000000   0.000000000000
				   0.000000000000   0.000000000000   0.000000000000
				   0.000000000000   0.000000000000   0.000000000000
				   0.000000000000   0.000000000000   0.000000000000
				   0.000000000000   0.000000000000   0.000000000000
				   0.000000000000   0.000000000000   0.000000000000
				   0.000000000000   0.000000000000   0.000000000000
				   0.000000000000   0.000000000000   0.000000000000
				   0.000000000000   0.000000000000   0.000000000000
				   0.000000000000   0.000000000000   0.000000000000
				   0.000000000000   0.000000000000   0.000000000000
				   0.000000000000   0.000000000000   0.000000000000
				   0.000000000000   0.000000000000   0.000000000000
				   0.000000000000   0.000000000000   0.000000000000
				   0.000000000000   0.000000000000   0.000000000000
				   0.000000000000   0.000000000000   0.000000000000
				   0.000000000000   0.000000000000   0.000000000000
				   0.000000000000   0.000000000000   0.000000000000
				   0.000000000000   0.000000000000   0.000000000000
				   0.000000000000   0.000000000000   0.000000000000
				   0.000000000000   0.000000000000   0.000000000000
				   0.000000000000   0.000000000000   0.000000000000
				   0.000000000000   0.000000000000   0.000000000000
				   0.000000000000   0.000000000000   0.000000000000
				   0.000000000000   0.000000000000   0.000000000000
				   0.000000000000   0.000000000000   0.000000000000
				   0.000000000000   0.000000000000   0.000000000000
				   0.000000000000   0.000000000000   0.000000000000
				   0.000052937117   -0.000052676975   0.000000000000
				   0.000295620650   -0.000144850085   0.000000000000
				   0.000718065297   -0.000212922225   0.000000000000
				   0.001269316014   -0.000240189277   0.000000000000
				   0.001861267807   -0.000226617440   0.000000000000
				   0.002405912378   -0.000179785910   0.000000000000
				   0.002813499078   -0.000115637349   0.000000000000
				   0.003039885240   -0.000049970212   0.000000000000
				   0.003071353927   0.000004304742   0.000000000000
				   0.002911038916   0.000048692178   0.000000000000
				   0.002530855656   0.000099059893   0.000000000000
				   0.001810683688   0.000183720804   0.000000000000
				   0.000507388565   0.000327422529   0.000000000000
				   -0.001787683268   0.000557379223   0.000000000000
				   -0.005574857620   0.000878195934   0.000000000000
				   -0.011394086489   0.001276737927   0.000000000000
				   -0.019603214346   0.001685266579   0.000000000000
				   -0.029928964835   0.001963689858   0.000000000000
				   -0.041135875622   0.001931537717   0.000000000000
				   -0.050642125790   0.001365968191   0.000000000000
				   -0.054905988963   0.000243493163   0.000000000000
				   -0.051937710508   -0.001126617710   0.000000000000
				   -0.042363115841   -0.002384431550   0.000000000000
				   -0.028423871911   -0.003193555456   0.000000000000
				   -0.013268465154   -0.003299108539   0.000000000000
				   0.000004366876   -0.002706992995   0.000000000000
				   0.009343749098   -0.001677230714   0.000000000000
				   0.014268207091   -0.000599791737   0.000000000000
				   0.015519376611   0.000219297319   0.000000000000
				   0.014379466581   0.000704063374   0.000000000000
				   0.012070805555   0.000880182833   0.000000000000
				   0.009462367057   0.000873986253   0.000000000000
				   0.007029233022   0.000781219805   0.000000000000
				   0.004960637643   0.000664049364   0.000000000000
				   0.003292154016   0.000551116636   0.000000000000
				   0.001988181906   0.000446702720   0.000000000000
				   0.001012719504   0.000336877863   0.000000000000
				   0.000369775790   0.000204737512   0.000000000000
				   0.000056105130   0.000056584333   0.000000000000
				   0.000000000000   0.000000000000   0.000000000000
				   0.000000000000   0.000000000000   0.000000000000
				   0.000143266114   -0.000294067557   0.000000000000
				   0.000602467284   -0.000603867639   0.000000000000
				   0.001332381628   -0.000819974040   0.000000000000
				   0.002244001668   -0.000894747862   0.000000000000
				   0.003199847922   -0.000825243675   0.000000000000
				   0.004057659622   -0.000637763481   0.000000000000
				   0.004661768112   -0.000386272967   0.000000000000
				   0.004917718724   -0.000123829123   0.000000000000
				   0.004765589086   0.000111429204   0.000000000000
				   0.004153942327   0.000330035557   0.000000000000
				   0.002963188191   0.000591121817   0.000000000000
				   0.000898363652   0.000990227713   0.000000000000
				   -0.002548166597   0.001609367574   0.000000000000
				   -0.008166522978   0.002515205487   0.000000000000
				   -0.016802339802   0.003685887410   0.000000000000
				   -0.029132030754   0.004990265892   0.000000000000
				   -0.045175974247   0.006115120158   0.000000000000
				   -0.063579714065   0.006583005077   0.000000000000
				   -0.081471600203   0.005903900621   0.000000000000
				   -0.094541518148   0.003687340003   0.000000000000
				   -0.098063879479   0.000055991030   0.000000000000
				   -0.090685836375   -0.004098206262   0.000000000000
				   -0.074454185060   -0.007775625010   0.000000000000
				   -0.052569219607   -0.010140100471   0.000000000000
				   -0.028917485359   -0.010566071145   0.000000000000
				   -0.007466856120   -0.009024075440   0.000000000000
				   0.008705263697   -0.006123441723   0.000000000000
				   0.018491828969   -0.002853831188   0.000000000000
				   0.022549096611   -0.000100242744   0.000000000000
				   0.022453143692   0.001763654181   0.000000000000
				   0.019906764449   0.002691800761   0.000000000000
				   0.016316611785   0.002953596611   0.000000000000
				   0.012584485882   0.002826468032   0.000000000000
				   0.009181951795   0.002525593802   0.000000000000
				   0.006303323885   0.002171830685   0.000000000000
				   0.003978959723   0.001801082955   0.000000000000
				   0.002188386312   0.001388999393   0.000000000000
				   0.000940181570   0.000904849480   0.000000000000
				   0.000223266088   0.000381375651   0.000000000000
				   0.000000000000   0.000000000000   0.000000000000
				   0.000000000000   0.000000000000   0.000000000000
				   0.000213150436   -0.000716981806   0.000000000000
				   0.000832188492   -0.001338726355   0.000000000000
				   0.001765631673   -0.001742065261   0.000000000000
				   0.002881609513   -0.001855139543   0.000000000000
				   0.004002601727   -0.001673813877   0.000000000000
				   0.004945458835   -0.001247076379   0.000000000000
				   0.005505897253   -0.000678927209   0.000000000000
				   0.005536313700   -0.000068664896   0.000000000000
				   0.004909477451   0.000517914551   0.000000000000
				   0.003470978189   0.001115157994   0.000000000000
				   0.000949041766   0.001854288990   0.000000000000
				   -0.003183251909   0.002931994483   0.000000000000
				   -0.009704628859   0.004501709842   0.000000000000
				   -0.019697602603   0.006641105974   0.000000000000
				   -0.034046916831   0.009188939676   0.000000000000
				   -0.052965339325   0.011695220588   0.000000000000
				   -0.075384281048   0.013393496306   0.000000000000
				   -0.098458390824   0.013384735002   0.000000000000
				   -0.118202075570   0.010996059964   0.000000000000
				   -0.130227405614   0.005951770712   0.000000000000
				   -0.130898925571   -0.001187706951   0.000000000000
				   -0.120418226751   -0.008832664934   0.000000000000
				   -0.101324750097   -0.015448861713   0.000000000000
				   -0.076406342770   -0.019805218636   0.000000000000
				   -0.048952819708   -0.020886968024   0.000000000000
				   -0.022688077335   -0.018495152986   0.000000000000
				   -0.001240969428   -0.013466122950   0.000000000000
				   0.013388248209   -0.007398563897   0.000000000000
				   0.021305940227   -0.001906320278   0.000000000000
				   0.023888560358   0.002156051976   0.000000000000
				   0.022838373234   0.004519884316   0.000000000000
				   0.019797137085   0.005530628164   0.000000000000
				   0.015958547138   0.005645196232   0.000000000000
				   0.012077921432   0.005271582889   0.000000000000
				   0.008568766664   0.004675562201   0.000000000000
				   0.005598709750   0.003968198009   0.000000000000
				   0.003215202498   0.003142456405   0.000000000000
				   0.001465475156   0.002165957078   0.000000000000
				   0.000377885193   0.001070659193   0.000000000000
				   0.000000000000   0.000000000000   0.000000000000
				   0.000000000000   0.000000000000   0.000000000000
				   0.000253996600   -0.001289524344   0.000000000000
				   0.000959503818   -0.002289163346   0.000000000000
				   0.001983111387   -0.002882016264   0.000000000000
				   0.003146159564   -0.002985989821   0.000000000000
				   0.004230829234   -0.002605714868   0.000000000000
				   0.005014913881   -0.001818410066   0.000000000000
				   0.005256134920   -0.000784896615   0.000000000000
				   0.004749637409   0.000352544600   0.000000000000
				   0.003283636341   0.001512189378   0.000000000000
				   0.000557248212   0.002778196272   0.000000000000
				   -0.003904551050   0.004381262350   0.000000000000
				   -0.010889800515   0.006631701311   0.000000000000
				   -0.021378254289   0.009715983285   0.000000000000
				   -0.036493481548   0.013606833042   0.000000000000
				   -0.056626555582   0.017784213839   0.000000000000
				   -0.080852915908   0.021251619190   0.000000000000
				   -0.106698189646   0.022738172264   0.000000000000
				   -0.130432425980   0.021154656523   0.000000000000
				   -0.148441279656   0.016054262502   0.000000000000
				   -0.157822243818   0.007573040602   0.000000000000
				   -0.156655430700   -0.003263091482   0.000000000000
				   -0.145711546523   -0.014440021242   0.000000000000
				   -0.126845574579   -0.024177929437   0.000000000000
				   -0.101900669231   -0.030947231522   0.000000000000
				   -0.073329751064   -0.033279851456   0.000000000000
				   -0.044314109539   -0.030608667946   0.000000000000
				   -0.018627724669   -0.023741245308   0.000000000000
				   0.000749240160   -0.014736694016   0.000000000000
				   0.013012799507   -0.006026924078   0.000000000000
				   0.019178993302   0.000888740919   0.000000000000
				   0.020767575093   0.005362067057   0.000000000000
				   0.019465814784   0.007717275522   0.000000000000
				   0.016592806210   0.008531492586   0.000000000000
				   0.013104479563   0.008385870697   0.000000000000
				   0.009619459394   0.007708261577   0.000000000000
				   0.006471324148   0.006722482150   0.000000000000
				   0.003818073700   0.005471392679   0.000000000000
				   0.001785599068   0.003928356679   0.000000000000
				   0.000473037961   0.002091223399   0.000000000000
				   0.000000000000   0.000000000000   0.000000000000
				   0.000000000000   0.000000000000   0.000000000000
				   0.000268721326   -0.001957397616   0.000000000000
				   0.000983275363   -0.003361336474   0.000000000000
				   0.001972760485   -0.004104533291   0.000000000000
				   0.003011248882   -0.004107841150   0.000000000000
				   0.003840633542   -0.003399978015   0.000000000000
				   0.004198228283   -0.002095056524   0.000000000000
				   0.003810483599   -0.000414911578   0.000000000000
				   0.002407095312   0.001470047511   0.000000000000
				   -0.000326868388   0.003489212129   0.000000000000
				   -0.004875975311   0.005812319913   0.000000000000
				   -0.011939555396   0.008782923291   0.000000000000
				   -0.022517036245   0.012784908413   0.000000000000
				   -0.037567103523   0.017902006610   0.000000000000
				   -0.057794441035   0.023772810246   0.000000000000
				   -0.082497187740   0.029265441738   0.000000000000
				   -0.109367069238   0.032787567283   0.000000000000
				   -0.135142066357   0.032865842104   0.000000000000
				   -0.156582903261   0.028732811986   0.000000000000
				   -0.171628906696   0.020511988707   0.000000000000
				   -0.179011666799   0.008704726449   0.000000000000
				   -0.177711600631   -0.005509021559   0.000000000000
				   -0.168163171507   -0.020037709757   0.000000000000
				   -0.151317874483   -0.033026592697   0.000000000000
				   -0.128121273295   -0.042692265143   0.000000000000
				   -0.100167606215   -0.047055806017   0.000000000000
				   -0.069954343523   -0.044983916290   0.000000000000
				   -0.041036909594   -0.036963165877   0.000000000000
				   -0.017099486475   -0.025231584611   0.000000000000
				   -0.000258683993   -0.013035243453   0.000000000000
				   0.009855706180   -0.002750145900   0.000000000000
				   0.014590666387   0.004427650423   0.000000000000
				   0.015690249606   0.008710564786   0.000000000000
				   0.014509792305   0.010744979650   0.000000000000
				   0.012104160709   0.011245767110   0.000000000000
				   0.009235145342   0.010780295405   0.000000000000
				   0.006387236221   0.009693882561   0.000000000000
				   0.003842243253   0.008099078907   0.000000000000
				   0.001819497229   0.005983029546   0.000000000000
				   0.000487782546   0.003305189161   0.000000000000
				   0.000000000000   0.000000000000   0.000000000000
				   0.000000000000   0.000000000000   0.000000000000
				   0.000257827377   -0.002664652223   0.000000000000
				   0.000896353421   -0.004444156954   0.000000000000
				   0.001706565689   -0.005240745793   0.000000000000
				   0.002418017943   -0.004991652816   0.000000000000
				   0.002736526099   -0.003768268936   0.000000000000
				   0.002358260949   -0.001731118409   0.000000000000
				   0.000983048237   0.000836321364   0.000000000000
				   -0.001739647929   0.003763308016   0.000000000000
				   -0.006248741808   0.007030434793   0.000000000000
				   -0.013231956604   0.010925938553   0.000000000000
				   -0.023566571962   0.015873504882   0.000000000000
				   -0.038272345179   0.022190993146   0.000000000000
				   -0.057876344040   0.029596609007   0.000000000000
				   -0.082122421112   0.037114404454   0.000000000000
				   -0.108970831393   0.042915932030   0.000000000000
				   -0.135306662410   0.045148620399   0.000000000000
				   -0.158314988930   0.042728492772   0.000000000000
				   -0.176217594327   0.035606836639   0.000000000000
				   -0.188415409662   0.024411051769   0.000000000000
				   -0.194513666426   0.009703590899   0.000000000000
				   -0.193878272351   -0.007453529052   0.000000000000
				   -0.186637167951   -0.025082242696   0.000000000000
				   -0.173033664699   -0.041380971382   0.000000000000
				   -0.153142461018   -0.054418116687   0.000000000000
				   -0.127552411374   -0.061723260508   0.000000000000
				   -0.097834631449   -0.061425615301   0.000000000000
				   -0.066977668046   -0.053341305494   0.000000000000
				   -0.038903694713   -0.039480645056   0.000000000000
				   -0.017076368149   -0.023657795650   0.000000000000
				   -0.002546728205   -0.009427856386   0.000000000000
				   0.005606912659   0.001101850063   0.000000000000
				   0.009371172440   0.007913105060   0.000000000000
				   0.010242437009   0.011693843325   0.000000000000
				   0.009340166472   0.013297558320   0.000000000000
				   0.007512767283   0.013408586217   0.000000000000
				   0.005362169415   0.012476123712   0.000000000000
				   0.003278898454   0.010685761913   0.000000000000
				   0.001559392467   0.008053797935   0.000000000000
				   0.000417359806   0.004531527713   0.000000000000
				   0.000000000000   0.000000000000   0.000000000000
				   0.000000000000   0.000000000000   0.000000000000
				   0.000214122119   -0.003310061036   0.000000000000
				   0.000672887018   -0.005339534776   0.000000000000
				   0.001130429512   -0.006008566847   0.000000000000
				   0.001282094383   -0.005287871075   0.000000000000
				   0.000809313707   -0.003309435272   0.000000000000
				   -0.000629971091   -0.000283714619   0.000000000000
				   -0.003358945066   0.003454515592   0.000000000000
				   -0.007824243527   0.007775123523   0.000000000000
				   -0.014594710829   0.012748449425   0.000000000000
				   -0.024520321283   0.018771351979   0.000000000000
				   -0.038482132200   0.026214312003   0.000000000000
				   -0.057159477115   0.035064965676   0.000000000000
				   -0.080190750883   0.044374991365   0.000000000000
				   -0.106145359759   0.052456619213   0.000000000000
				   -0.132163281221   0.057114597429   0.000000000000
				   -0.155441613239   0.056877829650   0.000000000000
				   -0.174401029966   0.051472583960   0.000000000000
				   -0.188514935295   0.041486728515   0.000000000000
				   -0.197886367322   0.027739365751   0.000000000000
				   -0.202618888632   0.010687524451   0.000000000000
				   -0.202657994340   -0.008799301855   0.000000000000
				   -0.198125559669   -0.029002330098   0.000000000000
				   -0.188715969074   -0.048364313043   0.000000000000
				   -0.173662289117   -0.064999497636   0.000000000000
				   -0.152437098277   -0.076078920697   0.000000000000
				   -0.125424112909   -0.078932605998   0.000000000000
				   -0.094631783320   -0.072362855966   0.000000000000
				   -0.063659948481   -0.057626697346   0.000000000000
				   -0.036782410126   -0.038561266152   0.000000000000
				   -0.016942769495   -0.019834396619   0.000000000000
				   -0.004779051822   -0.005143686410   0.000000000000
				   0.001820510177   0.004892771063   0.000000000000
				   0.004822168562   0.010956745797   0.000000000000
				   0.005555933462   0.014083360975   0.000000000000
				   0.004956797211   0.015116664755   0.000000000000
				   0.003720675263   0.014606187628   0.000000000000
				   0.002323483861   0.012807416944   0.000000000000
				   0.001106066123   0.009789482255   0.000000000000
				   0.000292759454   0.005550587431   0.000000000000
				   0.000000000000   0.000000000000   0.000000000000
				   0.000000000000   0.000000000000   0.000000000000
				   0.000121180155   -0.003756832159   0.000000000000
				   0.000261992906   -0.005786827848   0.000000000000
				   0.000150056542   -0.006044240027   0.000000000000
				   -0.000531061146   -0.004552618419   0.000000000000
				   -0.002105153751   -0.001516012405   0.000000000000
				   -0.004948561117   0.002814879511   0.000000000000
				   -0.009404725319   0.008077557577   0.000000000000
				   -0.016024218650   0.014227165424   0.000000000000
				   -0.025470573633   0.021427817101   0.000000000000
				   -0.038614380712   0.030080229876   0.000000000000
				   -0.056029103679   0.040238473058   0.000000000000
				   -0.077644123615   0.051240994533   0.000000000000
				   -0.102022380858   0.061339111049   0.000000000000
				   -0.126948321330   0.068421526543   0.000000000000
				   -0.149703080129   0.070573590711   0.000000000000
				   -0.168510577542   0.067183617968   0.000000000000
				   -0.182832905807   0.058726146342   0.000000000000
				   -0.192749256613   0.046125739752   0.000000000000
				   -0.198777404841   0.030262901956   0.000000000000
				   -0.201664367820   0.011526786570   0.000000000000
				   -0.202144535916   -0.009445063116   0.000000000000
				   -0.200447919631   -0.031384752796   0.000000000000
				   -0.195853959292   -0.053208029679   0.000000000000
				   -0.186906359034   -0.073320577478   0.000000000000
				   -0.172023025565   -0.088780331919   0.000000000000
				   -0.150268641052   -0.096223173127   0.000000000000
				   -0.122281766171   -0.093219521947   0.000000000000
				   -0.090721543127   -0.079689962096   0.000000000000
				   -0.059879542600   -0.058711508056   0.000000000000
				   -0.034053235761   -0.035387709159   0.000000000000
				   -0.016443087123   -0.015372144391   0.000000000000
				   -0.006223396642   -0.000992245895   0.000000000000
				   -0.000884365072   0.008170447994   0.000000000000
				   0.001532313492   0.013344191868   0.000000000000
				   0.002201839103   0.015646903739   0.000000000000
				   0.001931100973   0.015816887706   0.000000000000
				   0.001277861353   0.014210874166   0.000000000000
				   0.000613721764   0.010983400995   0.000000000000
				   0.000157892074   0.006240010730   0.000000000000
				   0.000000000000   0.000000000000   0.000000000000
				   0.000000000000   0.000000000000   0.000000000000
				   -0.000041217506   -0.003778568521   0.000000000000
				   -0.000391321363   -0.005391907760   0.000000000000
				   -0.001320519864   -0.004845174011   0.000000000000
				   -0.003118339993   -0.002222832371   0.000000000000
				   -0.006088417977   0.002208927298   0.000000000000
				   -0.010636237558   0.008189830954   0.000000000000
				   -0.017116995692   0.015361571847   0.000000000000
				   -0.026158670948   0.023782655037   0.000000000000
				   -0.038404972350   0.033627549584   0.000000000000
				   -0.054490893231   0.045067261526   0.000000000000
				   -0.074342110667   0.057519597602   0.000000000000
				   -0.096962820440   0.069515166145   0.000000000000
				   -0.120183125329   0.078766193703   0.000000000000
				   -0.141784267821   0.083347602282   0.000000000000
				   -0.159840684287   0.082138080790   0.000000000000
				   -0.173484112692   0.075365639815   0.000000000000
				   -0.182675794180   0.063954542614   0.000000000000
				   -0.187871621906   0.049042234947   0.000000000000
				   -0.190095263519   0.031617628052   0.000000000000
				   -0.190766180039   0.012033365742   0.000000000000
				   -0.191331132219   -0.009371913701   0.000000000000
				   -0.192160464191   -0.031930741806   0.000000000000
				   -0.192337473929   -0.055209298695   0.000000000000
				   -0.190027352885   -0.078154334006   0.000000000000
				   -0.182876256891   -0.098051119412   0.000000000000
				   -0.168741816066   -0.111154182498   0.000000000000
				   -0.146691621633   -0.113859635528   0.000000000000
				   -0.117883325249   -0.104342160342   0.000000000000
				   -0.085766611899   -0.084048363907   0.000000000000
				   -0.054968411554   -0.057451214896   0.000000000000
				   -0.030668295491   -0.031374536837   0.000000000000
				   -0.015034499721   -0.010952193877   0.000000000000
				   -0.006462939978   0.002657047622   0.000000000000
				   -0.002126985000   0.010766473866   0.000000000000
				   -0.000161918452   0.014839487900   0.000000000000
				   0.000485298622   0.015992372018   0.000000000000
				   0.000483762362   0.014812243245   0.000000000000
				   0.000263655444   0.011596175637   0.000000000000
				   0.000068537014   0.006600309520   0.000000000000
				   0.000000000000   0.000000000000   0.000000000000
				   0.000000000000   0.000000000000   0.000000000000
				   -0.000295582318   -0.003048554911   0.000000000000
				   -0.001333381110   -0.003628098848   0.000000000000
				   -0.003333224087   -0.001786765707   0.000000000000
				   -0.006506164320   0.002360920955   0.000000000000
				   -0.011107923009   0.008535425817   0.000000000000
				   -0.017563371156   0.016517091759   0.000000000000
				   -0.026210402614   0.025966429175   0.000000000000
				   -0.037667479509   0.036990709192   0.000000000000
				   -0.052363178830   0.049570703016   0.000000000000
				   -0.070418974960   0.063345845797   0.000000000000
				   -0.090969351598   0.076916111807   0.000000000000
				   -0.112341952497   0.088205964681   0.000000000000
				   -0.132300613651   0.094975213752   0.000000000000
				   -0.149172875861   0.095992911165   0.000000000000
				   -0.161807190508   0.090985083628   0.000000000000
				   -0.169836292899   0.080755453579   0.000000000000
				   -0.173549963663   0.066550915520   0.000000000000
				   -0.173878605358   0.049763643652   0.000000000000
				   -0.172338165905   0.031493199268   0.000000000000
				   -0.170786335424   0.012008365002   0.000000000000
				   -0.171094584082   -0.008701994146   0.000000000000
				   -0.173741219845   -0.030620626177   0.000000000000
				   -0.177866209723   -0.054037756784   0.000000000000
				   -0.181671768546   -0.078633132778   0.000000000000
				   -0.182512913783   -0.102293620346   0.000000000000
				   -0.177431677489   -0.121373807674   0.000000000000
				   -0.164041117505   -0.131474470356   0.000000000000
				   -0.141685985239   -0.128993414726   0.000000000000
				   -0.112211717524   -0.113073904313   0.000000000000
				   -0.079519081905   -0.086368673232   0.000000000000
				   -0.049409334823   -0.055378289516   0.000000000000
				   -0.026636822775   -0.027375997336   0.000000000000
				   -0.012803638980   -0.007103628867   0.000000000000
				   -0.005575676664   0.005540835854   0.000000000000
				   -0.002031361880   0.012401497693   0.000000000000
				   -0.000440316259   0.015114959255   0.000000000000
				   0.000102253480   0.014726370650   0.000000000000
				   0.000152388166   0.011800249137   0.000000000000
				   0.000057051711   0.006780185974   0.000000000000
				   0.000000000000   0.000000000000   0.000000000000
				   0.000000000000   0.000000000000   0.000000000000
				   -0.000644819441   -0.001160223734   0.000000000000
				   -0.002543967817   0.000105636974   0.000000000000
				   -0.005805774278   0.003775693672   0.000000000000
				   -0.010507780954   0.009810700393   0.000000000000
				   -0.016829731830   0.018016111995   0.000000000000
				   -0.025190330863   0.028263368385   0.000000000000
				   -0.035846679634   0.040190148467   0.000000000000
				   -0.049262614614   0.053798368962   0.000000000000
				   -0.065454467527   0.068607715370   0.000000000000
				   -0.083912397130   0.083537756503   0.000000000000
				   -0.103184373027   0.096523239751   0.000000000000
				   -0.121443313991   0.105396610276   0.000000000000
				   -0.136886935550   0.108491117710   0.000000000000
				   -0.148419209096   0.105361841126   0.000000000000
				   -0.155385862608   0.096375625215   0.000000000000
				   -0.157798612710   0.082783512173   0.000000000000
				   -0.156374261515   0.066179597179   0.000000000000
				   -0.152504199652   0.048179297681   0.000000000000
				   -0.147948313754   0.029869662142   0.000000000000
				   -0.144614678307   0.011349600708   0.000000000000
				   -0.144410921998   -0.007722686154   0.000000000000
				   -0.147854515946   -0.027873178445   0.000000000000
				   -0.154365574592   -0.050029213947   0.000000000000
				   -0.162596320125   -0.074671093007   0.000000000000
				   -0.170185162529   -0.100607180037   0.000000000000
				   -0.173975011602   -0.124855989748   0.000000000000
				   -0.170596680586   -0.142884940707   0.000000000000
				   -0.157675069879   -0.149763265717   0.000000000000
				   -0.135007985560   -0.142170466338   0.000000000000
				   -0.104868152702   -0.119993936184   0.000000000000
				   -0.072354287945   -0.087759450237   0.000000000000
				   -0.043255014680   -0.053015024324   0.000000000000
				   -0.022211493616   -0.023764923548   0.000000000000
				   -0.010083653678   -0.003995289408   0.000000000000
				   -0.004027159933   0.007477041255   0.000000000000
				   -0.001181960381   0.012941141665   0.000000000000
				   -0.000037264608   0.014056872954   0.000000000000
				   0.000212069867   0.011836775167   0.000000000000
				   0.000109671917   0.006989807120   0.000000000000
				   0.000000000000   0.000000000000   0.000000000000
				   0.000000000000   0.000000000000   0.000000000000
				   -0.001070552509   0.002314910641   0.000000000000
				   -0.003926782904   0.006398930009   0.000000000000
				   -0.008513068299   0.012422178077   0.000000000000
				   -0.014729982832   0.020622297386   0.000000000000
				   -0.022651893784   0.031027390345   0.000000000000
				   -0.032641932943   0.043619563208   0.000000000000
				   -0.044788160496   0.057894436051   0.000000000000
				   -0.059257856363   0.073539141367   0.000000000000
				   -0.075582828201   0.089431680985   0.000000000000
				   -0.092760720765   0.103856418758   0.000000000000
				   -0.109167321400   0.114522355400   0.000000000000
				   -0.123232722910   0.119661715134   0.000000000000
				   -0.133688074111   0.118355505773   0.000000000000
				   -0.139832837915   0.110787880280   0.000000000000
				   -0.141429325658   0.097862371536   0.000000000000
				   -0.138954655593   0.081294896091   0.000000000000
				   -0.133557285066   0.062982634600   0.000000000000
				   -0.126878396607   0.044592236083   0.000000000000
				   -0.120596916875   0.027013695213   0.000000000000
				   -0.116306357487   0.010093589011   0.000000000000
				   -0.115571979908   -0.006766444940   0.000000000000
				   -0.118822889249   -0.024405624965   0.000000000000
				   -0.125849743630   -0.044141211860   0.000000000000
				   -0.136024397698   -0.067139218816   0.000000000000
				   -0.147780403105   -0.093288528514   0.000000000000
				   -0.158462900837   -0.120776951055   0.000000000000
				   -0.164470771455   -0.145745314260   0.000000000000
				   -0.162237020865   -0.162794633966   0.000000000000
				   -0.149546738899   -0.166617185841   0.000000000000