<VTKFile type="UnstructuredGrid" version="0.1" byte_order="BigEndian">
	<UnstructuredGrid>
		<Piece NumberOfPoints="1681" NumberOfCells="3200">
			<PointData Scalars="scalars" Vectors = "Velocity">
				<DataArray type="Float32" Name="Velocity" NumberOfComponents="3" Format="ascii">
				   0.000000000000   0.000000000000   0.000000000000
				   0.000000000000   0.000000000000   0.000000000000
				   0.000000000000   0.000000000000   0.000000000000
				   0.000000000000   0.000000000000   0.000000000000
				   0.000000000000   0.000000000000   0.000000000000
				   0.000000000000   0.000000000000   0.000000000000
				   0.000000000000   0.000000000000   0.000000000000
				   0.000000000000   0.000000000000   0.000000000000
				   0.000000000000   0.000000000000   0.000000000000
				   0.000000000000   0.000000000000   0.000000000000
				   0.000000000000   0.000000000000   0.000000000000
				   0.000000000000   0.000000000000   0.000000000000
				   0.000000000000   0.000000000000   0.000000000000
				   0.000000000000   0.000000000000   0.000000000000
				   0.000000000000   0.000000000000   0.000000000000
				   0.000000000000   0.000000000000   0.000000000000
				   0.000000000000   0.000000000000   0.000000000000
				   0.000000000000   0.000000000000   0.000000000000
				   0.000000000000   0.000000000000   0.000000000000
				   0.000000000000   0.000000000000   0.000000000000
				   0.000000000000   0.000000000000   0.000000000000
				   0.000000000000   0.000000000000   0.000000000000
				   0.000000000000   0.000000000000   0.000000000000
				   0.000000000000   0.000000000000   0.000000000000
				   0.000000000000   0.000000000000   0.000000000000
				   0.000000000000   0.000000000000   0.000000000000
				   0.000000000000   0.000000000000   0.000000000000
				   0.000000000000   0.000000000000   0.000000000000
				   0.000000000000   0.000000000000   0.000000000000
				   0.000000000000   0.000000000000   0.000000000000
				   0.000000000000   0.000000000000   0.000000000000
				   0.000000000000   0.000000000000   0.000000000000
				   0.000000000000   0.000000000000   0.000000000000
				   0.000000000000   0.000000000000   0.000000000000
				   0.000000000000   0.000000000000   0.000000000000
				   0.000000000000   0.000000000000   0.000000000000
				   0.000000000000   0.000000000000   0.000000000000
				   0.000000000000   0.000000000000   0.000000000000
				   0.000000000000   0.000000000000   0.000000000000
				   0.000000000000   0.000000000000   0.000000000000
				   0.000000000000   0.000000000000   0.000000000000
				   0.000000000000   0.000000000000   0.000000000000
				   0.000046304929   -0.000046030467   0.000000000000
				   0.000282080038   -0.000142129156   0.000000000000
				   0.000714309278   -0.000220716707   0.000000000000
				   0.001300750098   -0.000258577497   0.000000000000
				   0.001949299856   -0.000250220760   0.000000000000
				   0.002559458038   -0.000201504019   0.000000000000
				   0.003027727777   -0.000131786870   0.000000000000
				   0.003312057624   -0.000064466563   0.000000000000
				   0.003423619416   -0.000020409553   0.000000000000
				   0.003413802380   -0.000001743417   0.000000000000
				   0.003304948436   0.000012657582   0.000000000000
				   0.003004265836   0.000061923326   0.000000000000
				   0.002253524753   0.000179931851   0.000000000000
				   0.000586001563   0.000402565851   0.000000000000
				   -0.002648403475   0.000753738170   0.000000000000
				   -0.008264542270   0.001242908274   0.000000000000
				   -0.016965507026   0.001802925756   0.000000000000
				   -0.028741477453   0.002261875793   0.000000000000
				   -0.042416793285   0.002400253086   0.000000000000
				   -0.055160446391   0.001955213869   0.000000000000
				   -0.062661762282   0.000826896650   0.000000000000
				   -0.061931307689   -0.000760634586   0.000000000000
				   -0.052843506780   -0.002454475623   0.000000000000
				   -0.037323648353   -0.003789687614   0.000000000000
				   -0.018811019460   -0.004275236055   0.000000000000
				   -0.001445670229   -0.003738993674   0.000000000000
				   0.011258225973   -0.002408943009   0.000000000000
				   0.018038624906   -0.000840843061   0.000000000000
				   0.019664949970   0.000400083425   0.000000000000
				   0.017877200128   0.001102640527   0.000000000000
				   0.014507812618   0.001294470535   0.000000000000
				   0.010888724543   0.001195251582   0.000000000000
				   0.007712875922   0.000984371484   0.000000000000
				   0.005197325115   0.000767691405   0.000000000000
				   0.003314242046   0.000587768747   0.000000000000
				   0.001939340772   0.000447009696   0.000000000000
				   0.000962274069   0.000323282248   0.000000000000
				   0.000339829810   0.000190128541   0.000000000000
				   0.000045897764   0.000046309490   0.000000000000
				   0.000000000000   0.000000000000   0.000000000000
				   0.000000000000   0.000000000000   0.000000000000
				   0.000137426428   -0.000278352294   0.000000000000
				   0.000599047300   -0.000606888550   0.000000000000
				   0.001362408746   -0.000860785102   0.000000000000
				   0.002349878319   -0.000971986243   0.000000000000
				   0.003418239463   -0.000921147606   0.000000000000
				   0.004409815800   -0.000730812449   0.000000000000
				   0.005152247010   -0.000467388294   0.000000000000
				   0.005559977960   -0.000208640124   0.000000000000
				   0.005615267775   -0.000016988002   0.000000000000
				   0.005342338484   0.000110054072   0.000000000000
				   0.004692131540   0.000253004927   0.000000000000
				   0.003389149377   0.000547753118   0.000000000000
				   0.000848813557   0.001115626062   0.000000000000
				   -0.003908770198   0.002065685243   0.000000000000
				   -0.012096783388   0.003435548318   0.000000000000
				   -0.024877212193   0.005124090559   0.000000000000
				   -0.042616925239   0.006750928534   0.000000000000
				   -0.063876093009   0.007692965639   0.000000000000
				   -0.085283409067   0.007336919579   0.000000000000
				   -0.101910130952   0.005238010900   0.000000000000
				   -0.108418948613   0.001433057982   0.000000000000
				   -0.103142330195   -0.003309651831   0.000000000000
				   -0.087866855947   -0.008013748972   0.000000000000
				   -0.065373797848   -0.011622796100   0.000000000000
				   -0.039134229180   -0.013051739218   0.000000000000
				   -0.013275827213   -0.011824322227   0.000000000000
				   0.007568635118   -0.008384555594   0.000000000000
				   0.020678468573   -0.003987952271   0.000000000000
				   0.026389176012   -0.000080315267   0.000000000000
				   0.026489069617   0.002567613173   0.000000000000
				   0.023219165731   0.003775212132   0.000000000000
				   0.018579516925   0.003942213595   0.000000000000
				   0.013890990048   0.003544426414   0.000000000000
				   0.009811044707   0.002950896347   0.000000000000
				   0.006544609760   0.002367422214   0.000000000000
				   0.004042587552   0.001855030780   0.000000000000
				   0.002192318697   0.001377285192   0.000000000000
				   0.000934304085   0.000876068281   0.000000000000
				   0.000220300686   0.000358034900   0.000000000000
				   0.000000000000   0.000000000000   0.000000000000
				   0.000000000000   0.000000000000   0.000000000000
				   0.000213566766   -0.000701681196   0.000000000000
				   0.000858714456   -0.001372589947   0.000000000000
				   0.001867268473   -0.001857499252   0.000000000000
				   0.003116484038   -0.002045867900   0.000000000000
				   0.004419106739   -0.001904579186   0.000000000000
				   0.005576215351   -0.001478840069   0.000000000000
				   0.006369847798   -0.000899223900   0.000000000000
				   0.006673557580   -0.000313362583   0.000000000000
				   0.006416779929   0.000168795937   0.000000000000
				   0.005530698145   0.000573954916   0.000000000000
				   0.003797666420   0.001087925360   0.000000000000
				   0.000648326739   0.002003117057   0.000000000000
				   -0.004901161429   0.003570664533   0.000000000000
				   -0.014317560455   0.005966537669   0.000000000000
				   -0.029023631905   0.009102641880   0.000000000000
				   -0.049596151544   0.012457965509   0.000000000000
				   -0.074738294463   0.015005650622   0.000000000000
				   -0.100786352659   0.015557418088   0.000000000000
				   -0.123004068579   0.013364925995   0.000000000000
				   -0.136988021910   0.008282748939   0.000000000000
				   -0.139666328573   0.000896394356   0.000000000000
				   -0.131572413300   -0.007442715976   0.000000000000
				   -0.114798050215   -0.015420874602   0.000000000000
				   -0.091265701724   -0.021654946374   0.000000000000
				   -0.063321946728   -0.024536817013   0.000000000000
				   -0.034105948986   -0.023118800383   0.000000000000
				   -0.007969505220   -0.017744153486   0.000000000000
				   0.010986549072   -0.010142891112   0.000000000000
				   0.021810333419   -0.002775447066   0.000000000000
				   0.025868247922   0.002796977189   0.000000000000
				   0.025150631744   0.005947520830   0.000000000000
				   0.021762503964   0.007087268501   0.000000000000
				   0.017324906052   0.006923533590   0.000000000000
				   0.012886902798   0.006118848586   0.000000000000
				   0.008991057599   0.005125886981   0.000000000000
				   0.005802524641   0.004146504231   0.000000000000
				   0.003311970146   0.003180840055   0.000000000000
				   0.001510350374   0.002157373567   0.000000000000
				   0.000392207159   0.001057814061   0.000000000000
				   0.000000000000   0.000000000000   0.000000000000
				   0.000000000000   0.000000000000   0.000000000000
				   0.000267283558   -0.001300219935   0.000000000000
				   0.001041313098   -0.002404838830   0.000000000000
				   0.002207272379   -0.003142511471   0.000000000000
				   0.003586574697   -0.003371114049   0.000000000000
				   0.004942535687   -0.003056058783   0.000000000000
				   0.006036475088   -0.002277410370   0.000000000000
				   0.006619603332   -0.001243957490   0.000000000000
				   0.006525712133   -0.000173474876   0.000000000000
				   0.005610320659   0.000793273116   0.000000000000
				   0.003643736727   0.001750561149   0.000000000000
				   0.000136724490   0.003045809107   0.000000000000
				   -0.005873018771   0.005170898073   0.000000000000
				   -0.015749083101   0.008484323596   0.000000000000
				   -0.031140460788   0.013079091627   0.000000000000
				   -0.052809299829   0.018382993885   0.000000000000
				   -0.079511054118   0.023052843451   0.000000000000
				   -0.107739695156   0.025349030555   0.000000000000
				   -0.132816592042   0.023995438995   0.000000000000
				   -0.151226477531   0.018828426803   0.000000000000
				   -0.161161865207   0.010372360798   0.000000000000
				   -0.161792746760   -0.000384558805   0.000000000000
				   -0.153935381010   -0.011985193836   0.000000000000
				   -0.138678416999   -0.023140670546   0.000000000000
				   -0.116856072881   -0.032294911317   0.000000000000
				   -0.089813923523   -0.037324436321   0.000000000000
				   -0.059814005825   -0.036620708937   0.000000000000
				   -0.030538348413   -0.030111847484   0.000000000000
				   -0.006482444789   -0.019605637239   0.000000000000
				   0.009510253812   -0.008455531491   0.000000000000
				   0.018034495047   0.000654388296   0.000000000000
				   0.020873267008   0.006501291588   0.000000000000
				   0.020079660683   0.009368037377   0.000000000000
				   0.017263394294   0.010083209117   0.000000000000
				   0.013629302381   0.009526882655   0.000000000000
				   0.009970652072   0.008382965329   0.000000000000
				   0.006692442602   0.007040013092   0.000000000000
				   0.003953605792   0.005591759164   0.000000000000
				   0.001859902351   0.003976856344   0.000000000000
				   0.000498714627   0.002120074278   0.000000000000
				   0.000000000000   0.000000000000   0.000000000000
				   0.000000000000   0.000000000000   0.000000000000
				   0.000304655033   -0.002044046212   0.000000000000
				   0.001154932030   -0.003648372398   0.000000000000
				   0.002385653265   -0.004622213942   0.000000000000
				   0.003752228317   -0.004803984118   0.000000000000
				   0.004962485525   -0.004181110455   0.000000000000
				   0.005736768125   -0.002890553427   0.000000000000
				   0.005806529685   -0.001233861156   0.000000000000
				   0.004959417613   0.000517553183   0.000000000000
				   0.002944663627   0.002238443922   0.000000000000
				   -0.000707256025   0.004163165612   0.000000000000
				   -0.006843032202   0.006853376131   0.000000000000
				   -0.016815740820   0.010973465164   0.000000000000
				   -0.032082558315   0.016802298336   0.000000000000
				   -0.053701975626   0.023966160224   0.000000000000
				   -0.080644802501   0.030944400646   0.000000000000
				   -0.109443712100   0.035506792860   0.000000000000
				   -0.135716160850   0.035835013762   0.000000000000
				   -0.156217093364   0.031467978994   0.000000000000
				   -0.170002419043   0.023174691443   0.000000000000
				   -0.177107403408   0.011820714222   0.000000000000
				   -0.177356524545   -0.001697563371   0.000000000000
				   -0.171139742364   -0.016125162729   0.000000000000
				   -0.158780256329   -0.030311299021   0.000000000000
				   -0.140270405326   -0.042635269155   0.000000000000
				   -0.115951184736   -0.050547238979   0.000000000000
				   -0.087073259704   -0.051671490309   0.000000000000
				   -0.056465310599   -0.045165648677   0.000000000000
				   -0.028384206675   -0.032523510584   0.000000000000
				   -0.007057506946   -0.017549470377   0.000000000000
				   0.006074690429   -0.004379237751   0.000000000000
				   0.012510316221   0.004736059317   0.000000000000
				   0.014617799945   0.009936224263   0.000000000000
				   0.014040795606   0.012121412935   0.000000000000
				   0.011950151751   0.012358518878   0.000000000000
				   0.009222285769   0.011491406021   0.000000000000
				   0.006431501566   0.010060886429   0.000000000000
				   0.003900509956   0.008269568837   0.000000000000
				   0.001864163631   0.006085982484   0.000000000000
				   0.000505916823   0.003382812250   0.000000000000
				   0.000000000000   0.000000000000   0.000000000000
				   0.000000000000   0.000000000000   0.000000000000
				   0.000330315164   -0.002915655457   0.000000000000
				   0.001200908362   -0.005049405404   0.000000000000
				   0.002383746929   -0.006185819992   0.000000000000
				   0.003559291174   -0.006161963124   0.000000000000
				   0.004379846001   -0.005024102436   0.000000000000
				   0.004527530047   -0.002997309947   0.000000000000
				   0.003722597549   -0.000487028060   0.000000000000
				   0.001683351579   0.002223716133   0.000000000000
				   -0.002002519677   0.005107031142   0.000000000000
				   -0.008125322093   0.008626143502   0.000000000000
				   -0.017888190274   0.013548433144   0.000000000000
				   -0.032780091530   0.020508320634   0.000000000000
				   -0.053641959929   0.029259608051   0.000000000000
				   -0.079907575027   0.038441177949   0.000000000000
				   -0.108361708919   0.045462320318   0.000000000000
				   -0.134629623249   0.047940670016   0.000000000000
				   -0.155712837741   0.045040153172   0.000000000000
				   -0.170797275129   0.037482945101   0.000000000000
				   -0.180467501691   0.026527334117   0.000000000000
				   -0.185286542035   0.012912868902   0.000000000000
				   -0.185480835024   -0.002726443908   0.000000000000
				   -0.181399129389   -0.019425973028   0.000000000000
				   -0.172880835514   -0.036309814809   0.000000000000
				   -0.159161360879   -0.051882185937   0.000000000000
				   -0.139504265515   -0.063353339092   0.000000000000
				   -0.113922283399   -0.067605240105   0.000000000000
				   -0.084070623181   -0.062700600211   0.000000000000
				   -0.053517278227   -0.049255467883   0.000000000000
				   -0.026984966538   -0.030936794074   0.000000000000
				   -0.008179527553   -0.012995821015   0.000000000000
				   0.002201476987   0.000216267939   0.000000000000
				   0.007088681276   0.008377123434   0.000000000000
				   0.008746657965   0.012545562653   0.000000000000
				   0.008433797249   0.014040019351   0.000000000000
				   0.006998766369   0.013885694166   0.000000000000
				   0.005091789607   0.012713771470   0.000000000000
				   0.003154217814   0.010796407161   0.000000000000
				   0.001513189217   0.008141913192   0.000000000000
				   0.000407179687   0.004616684527   0.000000000000
				   0.000000000000   0.000000000000   0.000000000000
				   0.000000000000   0.000000000000   0.000000000000
				   0.000336054953   -0.003857200739   0.000000000000
				   0.001145589133   -0.006465260630   0.000000000000
				   0.002124772398   -0.007595324171   0.000000000000
				   0.002879834936   -0.007118777364   0.000000000000
				   0.003020807253   -0.005191256894   0.000000000000
				   0.002201063182   -0.002155388625   0.000000000000
				   0.000130682165   0.001490864662   0.000000000000
				   -0.003585674305   0.005532747007   0.000000000000
				   -0.009582561299   0.010141633569   0.000000000000
				   -0.018974887811   0.016040660665   0.000000000000
				   -0.033081102593   0.024005014746   0.000000000000
				   -0.052885114846   0.034172337393   0.000000000000
				   -0.077721441579   0.045213393319   0.000000000000
				   -0.105059188041   0.054631260405   0.000000000000
				   -0.130707345022   0.059520736421   0.000000000000
				   -0.151475720789   0.058525964111   0.000000000000
				   -0.166520697216   0.052172941200   0.000000000000
				   -0.176353153441   0.041843166256   0.000000000000
				   -0.181920865520   0.028797748530   0.000000000000
				   -0.184198393006   0.013602038719   0.000000000000
				   -0.184145499171   -0.003342279148   0.000000000000
				   -0.182278108142   -0.021469851597   0.000000000000
				   -0.178104559817   -0.040358318439   0.000000000000
				   -0.170274857811   -0.058864065473   0.000000000000
				   -0.157081887068   -0.074231236556   0.000000000000
				   -0.137225474617   -0.082804381462   0.000000000000
				   -0.110864158978   -0.081445878778   0.000000000000
				   -0.080338954092   -0.069316110103   0.000000000000
				   -0.050042548582   -0.049137679811   0.000000000000
				   -0.024865258949   -0.026386771745   0.000000000000
				   -0.008818711239   -0.007690827416   0.000000000000
				   -0.000709854285   0.004408163747   0.000000000000
				   0.002939101313   0.011181419260   0.000000000000
				   0.004220322114   0.014311166899   0.000000000000
				   0.004078103316   0.015171530406   0.000000000000
				   0.003171215041   0.014538802732   0.000000000000
				   0.002007134994   0.012714306702   0.000000000000
				   0.000954667626   0.009744828229   0.000000000000
				   0.000248499001   0.005561190150   0.000000000000
				   0.000000000000   0.000000000000   0.000000000000
				   0.000000000000   0.000000000000   0.000000000000
				   0.000302569223   -0.004779108940   0.000000000000
				   0.000919372885   -0.007688176803   0.000000000000
				   0.001470059973   -0.008520235507   0.000000000000
				   0.001507028515   -0.007240959314   0.000000000000
				   0.000625491465   -0.004174022332   0.000000000000
				   -0.001541825907   0.000210141659   0.000000000000
				   -0.005310514837   0.005372553737   0.000000000000
				   -0.011246978895   0.011278887303   0.000000000000
				   -0.020217876520   0.018359329439   0.000000000000
				   -0.033468660271   0.027442784028   0.000000000000
				   -0.051861508907   0.038830096702   0.000000000000
				   -0.075073746652   0.051561283333   0.000000000000
				   -0.100637849035   0.063027444889   0.000000000000
				   -0.125046729649   0.070299510737   0.000000000000
				   -0.145007626388   0.071402889783   0.000000000000
				   -0.159267275836   0.066492803389   0.000000000000
				   -0.168160128823   0.056925293671   0.000000000000
				   -0.172557454785   0.044241659268   0.000000000000
				   -0.173739984292   0.029674008982   0.000000000000
				   -0.173275785856   0.013696303289   0.000000000000
				   -0.172798008841   -0.003556147684   0.000000000000
				   -0.172941512263   -0.022035713630   0.000000000000
				   -0.173051153262   -0.041911262766   0.000000000000
				   -0.171501425142   -0.062603185128   0.000000000000
				   -0.165944031773   -0.081719047233   0.000000000000
				   -0.153954471079   -0.095433186252   0.000000000000
				   -0.134080741975   -0.099591241462   0.000000000000
				   -0.106951464825   -0.091578138373   0.000000000000
				   -0.075790379042   -0.072262158343   0.000000000000
				   -0.045515275799   -0.046193083048   0.000000000000
				   -0.022094026384   -0.020973529507   0.000000000000
				   -0.008518608724   -0.002829457632   0.000000000000
				   -0.002299520697   0.007734840023   0.000000000000
				   0.000367212245   0.013156519689   0.000000000000
				   0.001325032442   0.015309111126   0.000000000000
				   0.001323857715   0.015385704628   0.000000000000
				   0.000890389442   0.013815526716   0.000000000000
				   0.000410945011   0.010700911991   0.000000000000
				   0.000094253628   0.006096852936   0.000000000000
				   0.000000000000   0.000000000000   0.000000000000
				   0.000000000000   0.000000000000   0.000000000000
				   0.000197583343   -0.005477219183   0.000000000000
				   0.000424859742   -0.008330026875   0.000000000000
				   0.000253604176   -0.008435099078   0.000000000000
				   -0.000768772044   -0.005924827722   0.000000000000
				   -0.003025946289   -0.001330605728   0.000000000000
				   -0.006909295433   0.004785661941   0.000000000000
				   -0.012788311246   0.011940096015   0.000000000000
				   -0.021416130496   0.020362944996   0.000000000000
				   -0.033734651338   0.030624964893   0.000000000000
				   -0.050636973886   0.043209750055   0.000000000000
				   -0.071846439706   0.057323023722   0.000000000000
				   -0.095467549524   0.070672938745   0.000000000000
				   -0.118106568647   0.080048856373   0.000000000000
				   -0.136870668064   0.083312210656   0.000000000000
				   -0.150124603268   0.080005145658   0.000000000000
				   -0.157770257331   0.071302451312   0.000000000000
				   -0.160499039957   0.058859838878   0.000000000000
				   -0.159541751963   0.044331554019   0.000000000000
				   -0.156614159304   0.028962189339   0.000000000000
				   -0.153647972557   0.013091960408   0.000000000000
				   -0.152604462618   -0.003453140942   0.000000000000
				   -0.154162508268   -0.021149842204   0.000000000000
				   -0.157725074633   -0.040775499385   0.000000000000
				   -0.161785779974   -0.062450250183   0.000000000000
				   -0.163852178274   -0.084475579740   0.000000000000
				   -0.160834298625   -0.103346402709   0.000000000000
				   -0.149895995016   -0.114375468510   0.000000000000
				   -0.129760254385   -0.113306241720   0.000000000000
				   -0.101777743715   -0.098573049683   0.000000000000
				   -0.069797086358   -0.072548610352   0.000000000000
				   -0.040107330226   -0.042121104948   0.000000000000
				   -0.018492616564   -0.015687300916   0.000000000000
				   -0.007189168908   0.001232785972   0.000000000000
				   -0.002491469902   0.010266489845   0.000000000000
				   -0.000569125321   0.014359289703   0.000000000000
				   0.000144443474   0.015358303325   0.000000000000
				   0.000241112973   0.014166043525   0.000000000000
				   0.000123004550   0.011072728446   0.000000000000
				   0.000019829457   0.006288893036   0.000000000000
				   0.000000000000   0.000000000000   0.000000000000
				   0.000000000000   0.000000000000   0.000000000000
				   -0.000019584062   -0.005602495606   0.000000000000
				   -0.000439908774   -0.007808380834   0.000000000000
				   -0.001669368226   -0.006637579128   0.000000000000
				   -0.004093137272   -0.002430084145   0.000000000000
				   -0.008043560181   0.004094689426   0.000000000000
				   -0.013951902464   0.012376777548   0.000000000000
				   -0.022244025616   0.022075143035   0.000000000000
				   -0.033741685150   0.033613366656   0.000000000000
				   -0.049079301652   0.047294934578   0.000000000000
				   -0.068230592747   0.062647556633   0.000000000000
				   -0.089566747891   0.077509902263   0.000000000000
				   -0.110314803470   0.088850197497   0.000000000000
				   -0.127537760842   0.094071652562   0.000000000000
				   -0.139657076703   0.092467793420   0.000000000000
				   -0.146151942056   0.084722186845   0.000000000000
				   -0.147401739492   0.072498845674   0.000000000000
				   -0.144466121118   0.057679280055   0.000000000000
				   -0.139026273124   0.042035687953   0.000000000000
				   -0.132996383774   0.026700114487   0.000000000000
				   -0.128259498205   0.011778856519   0.000000000000
				   -0.126671861455   -0.003202556156   0.000000000000
				   -0.128834082157   -0.019128453864   0.000000000000
				   -0.134388725432   -0.037260067059   0.000000000000
				   -0.142327192762   -0.058422475650   0.000000000000
				   -0.150579459983   -0.081860248953   0.000000000000
				   -0.156044760461   -0.104907299223   0.000000000000
				   -0.155069659766   -0.123038506794   0.000000000000
				   -0.144697144226   -0.130942517175   0.000000000000
				   -0.124074408686   -0.124642869071   0.000000000000
				   -0.095094346912   -0.103464193311   0.000000000000
				   -0.062954207136   -0.071822178810   0.000000000000
				   -0.034177878936   -0.037954066973   0.000000000000
				   -0.014549209607   -0.011123746070   0.000000000000
				   -0.005223413014   0.004386630356   0.000000000000
				   -0.001651117342   0.011926135347   0.000000000000
				   -0.000256663933   0.014595337336   0.000000000000
				   0.000192820424   0.014090019580   0.000000000000
				   0.000188992009   0.011208331686   0.000000000000
				   0.000064278105   0.006398970131   0.000000000000
				   0.000000000000   0.000000000000   0.000000000000
				   0.000000000000   0.000000000000   0.000000000000
				   -0.000375969235   -0.004643367678   0.000000000000
				   -0.001713843307   -0.005370492769   0.000000000000
				   -0.004299911808   -0.002331174387   0.000000000000
				   -0.008373962711   0.003994744719   0.000000000000
				   -0.014200320558   0.012809054548   0.000000000000
				   -0.022249145243   0.023662356436   0.000000000000
				   -0.032914660072   0.036316006987   0.000000000000
				   -0.046798294719   0.051059865233   0.000000000000
				   -0.063805032863   0.067369928602   0.000000000000
				   -0.082818155074   0.083521996693   0.000000000000
				   -0.101436539177   0.096498995493   0.000000000000
				   -0.117130623696   0.103648489119   0.000000000000
				   -0.128096329495   0.103708607582   0.000000000000
				   -0.133695160776   0.097121926234   0.000000000000
				   -0.133979636541   0.085219552474   0.000000000000
				   -0.129795462493   0.070046955571   0.000000000000
				   -0.122651449601   0.053688988081   0.000000000000
				   -0.114447263065   0.037845792938   0.000000000000
				   -0.106912275543   0.023331692286   0.000000000000
				   -0.101486600039   0.009935985208   0.000000000000
				   -0.099544758360   -0.003037638578   0.000000000000
				   -0.101493917332   -0.016639791920   0.000000000000
				   -0.107287075424   -0.032343789526   0.000000000000
				   -0.116631729660   -0.051513327065   0.000000000000
				   -0.128345380967   -0.074412503965   0.000000000000
				   -0.140012671983   -0.099635539038   0.000000000000
				   -0.147973312858   -0.123591152286   0.000000000000
				   -0.148245196876   -0.140847110542   0.000000000000
				   -0.137965413638   -0.145692996134   0.000000000000
				   -0.116637705286   -0.134315288547   0.000000000000
				   -0.087236792731   -0.107320352821   0.000000000000
				   -0.055452736269   -0.070567358721   0.000000000000
				   -0.028158036336   -0.033945768188   0.000000000000
				   -0.010793210370   -0.007363325728   0.000000000000
				   -0.003216470343   0.006586911248   0.000000000000
				   -0.000495325469   0.012656026822   0.000000000000
				   0.000388198435   0.013765011097   0.000000000000
				   0.000437230922   0.011496514238   0.000000000000
				   0.000183022262   0.006743890716   0.000000000000
				   0.000000000000   0.000000000000   0.000000000000
				   0.000000000000   0.000000000000   0.000000000000
				   -0.000872209981   -0.001985556164   0.000000000000
				   -0.003333890848   -0.000206267635   0.000000000000
				   -0.007444990501   0.005252870932   0.000000000000
				   -0.013239165371   0.014015843731   0.000000000000
				   -0.020896497384   0.025376359172   0.000000000000
				   -0.030864532668   0.039017300587   0.000000000000
				   -0.043317549836   0.054545977945   0.000000000000
				   -0.058331744425   0.071659217466   0.000000000000
				   -0.074976792247   0.088709670121   0.000000000000
				   -0.091474121513   0.103098157164   0.000000000000
				   -0.105552729617   0.111957462258   0.000000000000
				   -0.115518993185   0.113749265661   0.000000000000
				   -0.120499116128   0.108422826008   0.000000000000
				   -0.120369456205   0.097120864740   0.000000000000
				   -0.115716829966   0.081702603604   0.000000000000
				   -0.107894890117   0.064553905697   0.000000000000
				   -0.098649500515   0.047743023417   0.000000000000
				   -0.089731831980   0.032621335726   0.000000000000
				   -0.082381019095   0.019518906509   0.000000000000
				   -0.077390491436   0.007881903336   0.000000000000
				   -0.075471916247   -0.003099741960   0.000000000000
				   -0.076745322775   -0.014379823942   0.000000000000
				   -0.081367557325   -0.027302699569   0.000000000000
				   -0.089694035788   -0.043434035883   0.000000000000
				   -0.101608254360   -0.063877334109   0.000000000000
				   -0.115910119211   -0.088660123625   0.000000000000
				   -0.129796809248   -0.115783601767   0.000000000000
				   -0.139227905638   -0.140777080852   0.000000000000
				   -0.140049778328   -0.157380750506   0.000000000000